
     Program PWSCF v.6.7GPU starts on 16Jun2021 at  0:13:36 

     This program is part of the open-source Quantum ESPRESSO suite
     for quantum simulation of materials; please cite
         "P. Giannozzi et al., J. Phys.:Condens. Matter 21 395502 (2009);
         "P. Giannozzi et al., J. Phys.:Condens. Matter 29 465901 (2017);
         "P. Giannozzi et al., J. Chem. Phys. 152 154105 (2020);
          URL http://www.quantum-espresso.org", 
     in publications or presentations arising from this work. More details at
     http://www.quantum-espresso.org/quote

     Parallel version (MPI), running on     4 processors

     MPI processes distributed on     1 nodes
     K-points division:     npool     =       4
     Waiting for input...
     Reading input from standard input

     Current dimensions of program PWSCF are:
     Max number of different atomic species (ntypx) = 10
     Max number of k-points (npk) =  40000
     Max angular momentum in pseudopotentials (lmaxx) =  3

     Atomic positions and unit cell read from directory:
     /home/ponet/.julia/environments/DFControlDEV/outputs/Si.save/

     file Si.pbesol-n-kjpaw_psl.0.1.UPF: wavefunction(s)  3S renormalized
     Found symmetry operation: I + (  0.0000 -0.5000 -0.5000)
     This is a supercell, fractional translations are disabled
     Message from routine setup:
     using ibrav=0 with symmetry is DISCOURAGED, use correct ibrav instead

     Subspace diagonalization in iterative solution of the eigenvalue problem:
     a serial algorithm will be used


     G-vector sticks info
     --------------------
     sticks:   dense  smooth     PW     G-vecs:    dense   smooth      PW
     Sum         673     673    213                13133    13133    2325

     Using Slab Decomposition



     bravais-lattice index     =            0
     lattice parameter (alat)  =      10.2630  a.u.
     unit-cell volume          =    1080.9899 (a.u.)^3
     number of atoms/cell      =            8
     number of atomic types    =            1
     number of electrons       =        32.00
     number of Kohn-Sham states=           16
     kinetic-energy cutoff     =      20.0000  Ry
     charge density cutoff     =      80.0000  Ry
     Exchange-correlation= SLA  PW   PSX  PSC
                           (   1   4  10   8   0   0   0)

     celldm(1)=  10.262989  celldm(2)=   0.000000  celldm(3)=   0.000000
     celldm(4)=   0.000000  celldm(5)=   0.000000  celldm(6)=   0.000000

     crystal axes: (cart. coord. in units of alat)
               a(1) = (   1.000000   0.000000   0.000000 )  
               a(2) = (   0.000000   1.000000   0.000000 )  
               a(3) = (   0.000000   0.000000   1.000000 )  

     reciprocal axes: (cart. coord. in units 2 pi/alat)
               b(1) = (  1.000000  0.000000  0.000000 )  
               b(2) = (  0.000000  1.000000  0.000000 )  
               b(3) = (  0.000000  0.000000  1.000000 )  


     PseudoPot. # 1 for Si read from file:
     /home/ponet/Documents/pseudos/pslibrary_pbesol/PSEUDOPOTENTIALS/Si.pbesol-n-kjpaw_psl.0.1.UPF
     MD5 check sum: e112a9414d22b310a654c074e8da067c
     Pseudo is Projector augmented-wave + core cor, Zval =  4.0
     Generated using "atomic" code by A. Dal Corso  v.5.0.99 svn rev. 10869
     Shape of augmentation charge: PSQ
     Using radial grid of 1141 points,  4 beta functions with: 
                l(1) =   0
                l(2) =   0
                l(3) =   1
                l(4) =   1
     Q(r) pseudized with 0 coefficients 


     atomic species   valence    mass     pseudopotential
        Si             4.00    28.08550     Si( 1.00)

     24 Sym. Ops. (no inversion) found


                                    s                        frac. trans.

      isym =  1     identity                                     

 cryst.   s( 1) = (     1          0          0      )
                  (     0          1          0      )
                  (     0          0          1      )

 cart.    s( 1) = (  1.0000000  0.0000000  0.0000000 )
                  (  0.0000000  1.0000000  0.0000000 )
                  (  0.0000000  0.0000000  1.0000000 )


      isym =  2     180 deg rotation - cart. axis [0,0,1]        

 cryst.   s( 2) = (    -1          0          0      )
                  (     0         -1          0      )
                  (     0          0          1      )

 cart.    s( 2) = ( -1.0000000  0.0000000  0.0000000 )
                  (  0.0000000 -1.0000000  0.0000000 )
                  (  0.0000000  0.0000000  1.0000000 )


      isym =  3     180 deg rotation - cart. axis [0,1,0]        

 cryst.   s( 3) = (    -1          0          0      )
                  (     0          1          0      )
                  (     0          0         -1      )

 cart.    s( 3) = ( -1.0000000  0.0000000  0.0000000 )
                  (  0.0000000  1.0000000  0.0000000 )
                  (  0.0000000  0.0000000 -1.0000000 )


      isym =  4     180 deg rotation - cart. axis [1,0,0]        

 cryst.   s( 4) = (     1          0          0      )
                  (     0         -1          0      )
                  (     0          0         -1      )

 cart.    s( 4) = (  1.0000000  0.0000000  0.0000000 )
                  (  0.0000000 -1.0000000  0.0000000 )
                  (  0.0000000  0.0000000 -1.0000000 )


      isym =  5     120 deg rotation - cart. axis [-1,-1,-1]     

 cryst.   s( 5) = (     0          0          1      )
                  (     1          0          0      )
                  (     0          1          0      )

 cart.    s( 5) = (  0.0000000  1.0000000  0.0000000 )
                  (  0.0000000  0.0000000  1.0000000 )
                  (  1.0000000  0.0000000  0.0000000 )


      isym =  6     120 deg rotation - cart. axis [-1,1,1]       

 cryst.   s( 6) = (     0          0         -1      )
                  (    -1          0          0      )
                  (     0          1          0      )

 cart.    s( 6) = (  0.0000000 -1.0000000  0.0000000 )
                  (  0.0000000  0.0000000  1.0000000 )
                  ( -1.0000000  0.0000000  0.0000000 )


      isym =  7     120 deg rotation - cart. axis [1,1,-1]       

 cryst.   s( 7) = (     0          0         -1      )
                  (     1          0          0      )
                  (     0         -1          0      )

 cart.    s( 7) = (  0.0000000  1.0000000  0.0000000 )
                  (  0.0000000  0.0000000 -1.0000000 )
                  ( -1.0000000  0.0000000  0.0000000 )


      isym =  8     120 deg rotation - cart. axis [1,-1,1]       

 cryst.   s( 8) = (     0          0          1      )
                  (    -1          0          0      )
                  (     0         -1          0      )

 cart.    s( 8) = (  0.0000000 -1.0000000  0.0000000 )
                  (  0.0000000  0.0000000 -1.0000000 )
                  (  1.0000000  0.0000000  0.0000000 )


      isym =  9     120 deg rotation - cart. axis [1,1,1]        

 cryst.   s( 9) = (     0          1          0      )
                  (     0          0          1      )
                  (     1          0          0      )

 cart.    s( 9) = (  0.0000000  0.0000000  1.0000000 )
                  (  1.0000000  0.0000000  0.0000000 )
                  (  0.0000000  1.0000000  0.0000000 )


      isym = 10     120 deg rotation - cart. axis [-1,1,-1]      

 cryst.   s(10) = (     0         -1          0      )
                  (     0          0         -1      )
                  (     1          0          0      )

 cart.    s(10) = (  0.0000000  0.0000000  1.0000000 )
                  ( -1.0000000  0.0000000  0.0000000 )
                  (  0.0000000 -1.0000000  0.0000000 )


      isym = 11     120 deg rotation - cart. axis [1,-1,-1]      

 cryst.   s(11) = (     0         -1          0      )
                  (     0          0          1      )
                  (    -1          0          0      )

 cart.    s(11) = (  0.0000000  0.0000000 -1.0000000 )
                  ( -1.0000000  0.0000000  0.0000000 )
                  (  0.0000000  1.0000000  0.0000000 )


      isym = 12     120 deg rotation - cart. axis [-1,-1,1]      

 cryst.   s(12) = (     0          1          0      )
                  (     0          0         -1      )
                  (    -1          0          0      )

 cart.    s(12) = (  0.0000000  0.0000000 -1.0000000 )
                  (  1.0000000  0.0000000  0.0000000 )
                  (  0.0000000 -1.0000000  0.0000000 )


      isym = 13     inv. 180 deg rotation - cart. axis [1,1,0]   

 cryst.   s(13) = (     0         -1          0      )
                  (    -1          0          0      )
                  (     0          0          1      )

 cart.    s(13) = (  0.0000000 -1.0000000  0.0000000 )
                  ( -1.0000000  0.0000000  0.0000000 )
                  (  0.0000000  0.0000000  1.0000000 )


      isym = 14     inv. 180 deg rotation - cart. axis [1,-1,0]  

 cryst.   s(14) = (     0          1          0      )
                  (     1          0          0      )
                  (     0          0          1      )

 cart.    s(14) = (  0.0000000  1.0000000  0.0000000 )
                  (  1.0000000  0.0000000  0.0000000 )
                  (  0.0000000  0.0000000  1.0000000 )


      isym = 15     inv.  90 deg rotation - cart. axis [0,0,-1]  

 cryst.   s(15) = (     0          1          0      )
                  (    -1          0          0      )
                  (     0          0         -1      )

 cart.    s(15) = (  0.0000000 -1.0000000  0.0000000 )
                  (  1.0000000  0.0000000  0.0000000 )
                  (  0.0000000  0.0000000 -1.0000000 )


      isym = 16     inv.  90 deg rotation - cart. axis [0,0,1]   

 cryst.   s(16) = (     0         -1          0      )
                  (     1          0          0      )
                  (     0          0         -1      )

 cart.    s(16) = (  0.0000000  1.0000000  0.0000000 )
                  ( -1.0000000  0.0000000  0.0000000 )
                  (  0.0000000  0.0000000 -1.0000000 )


      isym = 17     inv. 180 deg rotation - cart. axis [1,0,1]   

 cryst.   s(17) = (     0          0         -1      )
                  (     0          1          0      )
                  (    -1          0          0      )

 cart.    s(17) = (  0.0000000  0.0000000 -1.0000000 )
                  (  0.0000000  1.0000000  0.0000000 )
                  ( -1.0000000  0.0000000  0.0000000 )


      isym = 18     inv. 180 deg rotation - cart. axis [-1,0,1]  

 cryst.   s(18) = (     0          0          1      )
                  (     0          1          0      )
                  (     1          0          0      )

 cart.    s(18) = (  0.0000000  0.0000000  1.0000000 )
                  (  0.0000000  1.0000000  0.0000000 )
                  (  1.0000000  0.0000000  0.0000000 )


      isym = 19     inv.  90 deg rotation - cart. axis [0,1,0]   

 cryst.   s(19) = (     0          0          1      )
                  (     0         -1          0      )
                  (    -1          0          0      )

 cart.    s(19) = (  0.0000000  0.0000000 -1.0000000 )
                  (  0.0000000 -1.0000000  0.0000000 )
                  (  1.0000000  0.0000000  0.0000000 )


      isym = 20     inv.  90 deg rotation - cart. axis [0,-1,0]  

 cryst.   s(20) = (     0          0         -1      )
                  (     0         -1          0      )
                  (     1          0          0      )

 cart.    s(20) = (  0.0000000  0.0000000  1.0000000 )
                  (  0.0000000 -1.0000000  0.0000000 )
                  ( -1.0000000  0.0000000  0.0000000 )


      isym = 21     inv. 180 deg rotation - cart. axis [0,1,1]   

 cryst.   s(21) = (     1          0          0      )
                  (     0          0         -1      )
                  (     0         -1          0      )

 cart.    s(21) = (  1.0000000  0.0000000  0.0000000 )
                  (  0.0000000  0.0000000 -1.0000000 )
                  (  0.0000000 -1.0000000  0.0000000 )


      isym = 22     inv. 180 deg rotation - cart. axis [0,1,-1]  

 cryst.   s(22) = (     1          0          0      )
                  (     0          0          1      )
                  (     0          1          0      )

 cart.    s(22) = (  1.0000000  0.0000000  0.0000000 )
                  (  0.0000000  0.0000000  1.0000000 )
                  (  0.0000000  1.0000000  0.0000000 )


      isym = 23     inv.  90 deg rotation - cart. axis [-1,0,0]  

 cryst.   s(23) = (    -1          0          0      )
                  (     0          0          1      )
                  (     0         -1          0      )

 cart.    s(23) = ( -1.0000000  0.0000000  0.0000000 )
                  (  0.0000000  0.0000000 -1.0000000 )
                  (  0.0000000  1.0000000  0.0000000 )


      isym = 24     inv.  90 deg rotation - cart. axis [1,0,0]   

 cryst.   s(24) = (    -1          0          0      )
                  (     0          0         -1      )
                  (     0          1          0      )

 cart.    s(24) = ( -1.0000000  0.0000000  0.0000000 )
                  (  0.0000000  0.0000000  1.0000000 )
                  (  0.0000000 -1.0000000  0.0000000 )


   Cartesian axes

     site n.     atom                  positions (alat units)
         1           Si  tau(   1) = (   0.0000000   0.0000000   0.0000000  )
         2           Si  tau(   2) = (   0.0000000   0.5000000   0.5000000  )
         3           Si  tau(   3) = (   0.2500000   0.2500000   0.2500000  )
         4           Si  tau(   4) = (   0.5000000   0.0000000   0.5000000  )
         5           Si  tau(   5) = (   0.2500000   0.7500000   0.7500000  )
         6           Si  tau(   6) = (   0.7500000   0.7500000   0.2500000  )
         7           Si  tau(   7) = (   0.7500000   0.2500000   0.7500000  )
         8           Si  tau(   8) = (   0.5000000   0.5000000   0.0000000  )

   Crystallographic axes

     site n.     atom                  positions (cryst. coord.)
         1           Si  tau(   1) = (  0.0000000  0.0000000  0.0000000  )
         2           Si  tau(   2) = (  0.0000000  0.5000000  0.5000000  )
         3           Si  tau(   3) = (  0.2500000  0.2500000  0.2500000  )
         4           Si  tau(   4) = (  0.5000000  0.0000000  0.5000000  )
         5           Si  tau(   5) = (  0.2500000  0.7500000  0.7500000  )
         6           Si  tau(   6) = (  0.7500000  0.7500000  0.2500000  )
         7           Si  tau(   7) = (  0.7500000  0.2500000  0.7500000  )
         8           Si  tau(   8) = (  0.5000000  0.5000000  0.0000000  )

     number of k points=   221
                       cart. coord. in units 2pi/alat
        k(    1) = (   0.0000000   0.0000000   0.0000000), wk =   0.0090498
        k(    2) = (   0.0250000   0.0000000   0.0250000), wk =   0.0090498
        k(    3) = (   0.0500000   0.0000000   0.0500000), wk =   0.0090498
        k(    4) = (   0.0750000   0.0000000   0.0750000), wk =   0.0090498
        k(    5) = (   0.1000000   0.0000000   0.1000000), wk =   0.0090498
        k(    6) = (   0.1250000   0.0000000   0.1250000), wk =   0.0090498
        k(    7) = (   0.1500000   0.0000000   0.1500000), wk =   0.0090498
        k(    8) = (   0.1750000   0.0000000   0.1750000), wk =   0.0090498
        k(    9) = (   0.2000000   0.0000000   0.2000000), wk =   0.0090498
        k(   10) = (   0.2250000   0.0000000   0.2250000), wk =   0.0090498
        k(   11) = (   0.2500000   0.0000000   0.2500000), wk =   0.0090498
        k(   12) = (   0.2750000   0.0000000   0.2750000), wk =   0.0090498
        k(   13) = (   0.3000000   0.0000000   0.3000000), wk =   0.0090498
        k(   14) = (   0.3250000   0.0000000   0.3250000), wk =   0.0090498
        k(   15) = (   0.3500000   0.0000000   0.3500000), wk =   0.0090498
        k(   16) = (   0.3750000   0.0000000   0.3750000), wk =   0.0090498
        k(   17) = (   0.4000000   0.0000000   0.4000000), wk =   0.0090498
        k(   18) = (   0.4250000   0.0000000   0.4250000), wk =   0.0090498
        k(   19) = (   0.4500000   0.0000000   0.4500000), wk =   0.0090498
        k(   20) = (   0.4750000   0.0000000   0.4750000), wk =   0.0090498
        k(   21) = (   0.5000000   0.0000000   0.5000000), wk =   0.0090498
        k(   22) = (   0.5000000   0.0125000   0.5125000), wk =   0.0090498
        k(   23) = (   0.5000000   0.0250000   0.5250000), wk =   0.0090498
        k(   24) = (   0.5000000   0.0375000   0.5375000), wk =   0.0090498
        k(   25) = (   0.5000000   0.0500000   0.5500000), wk =   0.0090498
        k(   26) = (   0.5000000   0.0625000   0.5625000), wk =   0.0090498
        k(   27) = (   0.5000000   0.0750000   0.5750000), wk =   0.0090498
        k(   28) = (   0.5000000   0.0875000   0.5875000), wk =   0.0090498
        k(   29) = (   0.5000000   0.1000000   0.6000000), wk =   0.0090498
        k(   30) = (   0.5000000   0.1125000   0.6125000), wk =   0.0090498
        k(   31) = (   0.5000000   0.1250000   0.6250000), wk =   0.0090498
        k(   32) = (   0.5000000   0.1375000   0.6375000), wk =   0.0090498
        k(   33) = (   0.5000000   0.1500000   0.6500000), wk =   0.0090498
        k(   34) = (   0.5000000   0.1625000   0.6625000), wk =   0.0090498
        k(   35) = (   0.5000000   0.1750000   0.6750000), wk =   0.0090498
        k(   36) = (   0.5000000   0.1875000   0.6875000), wk =   0.0090498
        k(   37) = (   0.5000000   0.2000000   0.7000000), wk =   0.0090498
        k(   38) = (   0.5000000   0.2125000   0.7125000), wk =   0.0090498
        k(   39) = (   0.5000000   0.2250000   0.7250000), wk =   0.0090498
        k(   40) = (   0.5000000   0.2375000   0.7375000), wk =   0.0090498
        k(   41) = (   0.5000000   0.2500000   0.7500000), wk =   0.0090498
        k(   42) = (   0.4937500   0.2562500   0.7500000), wk =   0.0090498
        k(   43) = (   0.4875000   0.2625000   0.7500000), wk =   0.0090498
        k(   44) = (   0.4812500   0.2687500   0.7500000), wk =   0.0090498
        k(   45) = (   0.4750000   0.2750000   0.7500000), wk =   0.0090498
        k(   46) = (   0.4687500   0.2812500   0.7500000), wk =   0.0090498
        k(   47) = (   0.4625000   0.2875000   0.7500000), wk =   0.0090498
        k(   48) = (   0.4562500   0.2937500   0.7500000), wk =   0.0090498
        k(   49) = (   0.4500000   0.3000000   0.7500000), wk =   0.0090498
        k(   50) = (   0.4437500   0.3062500   0.7500000), wk =   0.0090498
        k(   51) = (   0.4375000   0.3125000   0.7500000), wk =   0.0090498
        k(   52) = (   0.4312500   0.3187500   0.7500000), wk =   0.0090498
        k(   53) = (   0.4250000   0.3250000   0.7500000), wk =   0.0090498
        k(   54) = (   0.4187500   0.3312500   0.7500000), wk =   0.0090498
        k(   55) = (   0.4125000   0.3375000   0.7500000), wk =   0.0090498
        k(   56) = (   0.4062500   0.3437500   0.7500000), wk =   0.0090498
        k(   57) = (   0.4000000   0.3500000   0.7500000), wk =   0.0090498
        k(   58) = (   0.3937500   0.3562500   0.7500000), wk =   0.0090498
        k(   59) = (   0.3875000   0.3625000   0.7500000), wk =   0.0090498
        k(   60) = (   0.3812500   0.3687500   0.7500000), wk =   0.0090498
        k(   61) = (   0.3750000   0.3750000   0.7500000), wk =   0.0090498
        k(   62) = (   0.3562500   0.3562500   0.7125000), wk =   0.0090498
        k(   63) = (   0.3375000   0.3375000   0.6750000), wk =   0.0090498
        k(   64) = (   0.3187500   0.3187500   0.6375000), wk =   0.0090498
        k(   65) = (   0.3000000   0.3000000   0.6000000), wk =   0.0090498
        k(   66) = (   0.2812500   0.2812500   0.5625000), wk =   0.0090498
        k(   67) = (   0.2625000   0.2625000   0.5250000), wk =   0.0090498
        k(   68) = (   0.2437500   0.2437500   0.4875000), wk =   0.0090498
        k(   69) = (   0.2250000   0.2250000   0.4500000), wk =   0.0090498
        k(   70) = (   0.2062500   0.2062500   0.4125000), wk =   0.0090498
        k(   71) = (   0.1875000   0.1875000   0.3750000), wk =   0.0090498
        k(   72) = (   0.1687500   0.1687500   0.3375000), wk =   0.0090498
        k(   73) = (   0.1500000   0.1500000   0.3000000), wk =   0.0090498
        k(   74) = (   0.1312500   0.1312500   0.2625000), wk =   0.0090498
        k(   75) = (   0.1125000   0.1125000   0.2250000), wk =   0.0090498
        k(   76) = (   0.0937500   0.0937500   0.1875000), wk =   0.0090498
        k(   77) = (   0.0750000   0.0750000   0.1500000), wk =   0.0090498
        k(   78) = (   0.0562500   0.0562500   0.1125000), wk =   0.0090498
        k(   79) = (   0.0375000   0.0375000   0.0750000), wk =   0.0090498
        k(   80) = (   0.0187500   0.0187500   0.0375000), wk =   0.0090498
        k(   81) = (   0.0000000   0.0000000   0.0000000), wk =   0.0090498
        k(   82) = (   0.0250000   0.0250000   0.0250000), wk =   0.0090498
        k(   83) = (   0.0500000   0.0500000   0.0500000), wk =   0.0090498
        k(   84) = (   0.0750000   0.0750000   0.0750000), wk =   0.0090498
        k(   85) = (   0.1000000   0.1000000   0.1000000), wk =   0.0090498
        k(   86) = (   0.1250000   0.1250000   0.1250000), wk =   0.0090498
        k(   87) = (   0.1500000   0.1500000   0.1500000), wk =   0.0090498
        k(   88) = (   0.1750000   0.1750000   0.1750000), wk =   0.0090498
        k(   89) = (   0.2000000   0.2000000   0.2000000), wk =   0.0090498
        k(   90) = (   0.2250000   0.2250000   0.2250000), wk =   0.0090498
        k(   91) = (   0.2500000   0.2500000   0.2500000), wk =   0.0090498
        k(   92) = (   0.2750000   0.2750000   0.2750000), wk =   0.0090498
        k(   93) = (   0.3000000   0.3000000   0.3000000), wk =   0.0090498
        k(   94) = (   0.3250000   0.3250000   0.3250000), wk =   0.0090498
        k(   95) = (   0.3500000   0.3500000   0.3500000), wk =   0.0090498
        k(   96) = (   0.3750000   0.3750000   0.3750000), wk =   0.0090498
        k(   97) = (   0.4000000   0.4000000   0.4000000), wk =   0.0090498
        k(   98) = (   0.4250000   0.4250000   0.4250000), wk =   0.0090498
        k(   99) = (   0.4500000   0.4500000   0.4500000), wk =   0.0090498
        k(  100) = (   0.4750000   0.4750000   0.4750000), wk =   0.0090498
        k(  101) = (   0.5000000   0.5000000   0.5000000), wk =   0.0090498
        k(  102) = (   0.5062500   0.4875000   0.5062500), wk =   0.0090498
        k(  103) = (   0.5125000   0.4750000   0.5125000), wk =   0.0090498
        k(  104) = (   0.5187500   0.4625000   0.5187500), wk =   0.0090498
        k(  105) = (   0.5250000   0.4500000   0.5250000), wk =   0.0090498
        k(  106) = (   0.5312500   0.4375000   0.5312500), wk =   0.0090498
        k(  107) = (   0.5375000   0.4250000   0.5375000), wk =   0.0090498
        k(  108) = (   0.5437500   0.4125000   0.5437500), wk =   0.0090498
        k(  109) = (   0.5500000   0.4000000   0.5500000), wk =   0.0090498
        k(  110) = (   0.5562500   0.3875000   0.5562500), wk =   0.0090498
        k(  111) = (   0.5625000   0.3750000   0.5625000), wk =   0.0090498
        k(  112) = (   0.5687500   0.3625000   0.5687500), wk =   0.0090498
        k(  113) = (   0.5750000   0.3500000   0.5750000), wk =   0.0090498
        k(  114) = (   0.5812500   0.3375000   0.5812500), wk =   0.0090498
        k(  115) = (   0.5875000   0.3250000   0.5875000), wk =   0.0090498
        k(  116) = (   0.5937500   0.3125000   0.5937500), wk =   0.0090498
        k(  117) = (   0.6000000   0.3000000   0.6000000), wk =   0.0090498
        k(  118) = (   0.6062500   0.2875000   0.6062500), wk =   0.0090498
        k(  119) = (   0.6125000   0.2750000   0.6125000), wk =   0.0090498
        k(  120) = (   0.6187500   0.2625000   0.6187500), wk =   0.0090498
        k(  121) = (   0.6250000   0.2500000   0.6250000), wk =   0.0090498
        k(  122) = (   0.6187500   0.2500000   0.6312500), wk =   0.0090498
        k(  123) = (   0.6125000   0.2500000   0.6375000), wk =   0.0090498
        k(  124) = (   0.6062500   0.2500000   0.6437500), wk =   0.0090498
        k(  125) = (   0.6000000   0.2500000   0.6500000), wk =   0.0090498
        k(  126) = (   0.5937500   0.2500000   0.6562500), wk =   0.0090498
        k(  127) = (   0.5875000   0.2500000   0.6625000), wk =   0.0090498
        k(  128) = (   0.5812500   0.2500000   0.6687500), wk =   0.0090498
        k(  129) = (   0.5750000   0.2500000   0.6750000), wk =   0.0090498
        k(  130) = (   0.5687500   0.2500000   0.6812500), wk =   0.0090498
        k(  131) = (   0.5625000   0.2500000   0.6875000), wk =   0.0090498
        k(  132) = (   0.5562500   0.2500000   0.6937500), wk =   0.0090498
        k(  133) = (   0.5500000   0.2500000   0.7000000), wk =   0.0090498
        k(  134) = (   0.5437500   0.2500000   0.7062500), wk =   0.0090498
        k(  135) = (   0.5375000   0.2500000   0.7125000), wk =   0.0090498
        k(  136) = (   0.5312500   0.2500000   0.7187500), wk =   0.0090498
        k(  137) = (   0.5250000   0.2500000   0.7250000), wk =   0.0090498
        k(  138) = (   0.5187500   0.2500000   0.7312500), wk =   0.0090498
        k(  139) = (   0.5125000   0.2500000   0.7375000), wk =   0.0090498
        k(  140) = (   0.5062500   0.2500000   0.7437500), wk =   0.0090498
        k(  141) = (   0.5000000   0.2500000   0.7500000), wk =   0.0090498
        k(  142) = (   0.5000000   0.2625000   0.7375000), wk =   0.0090498
        k(  143) = (   0.5000000   0.2750000   0.7250000), wk =   0.0090498
        k(  144) = (   0.5000000   0.2875000   0.7125000), wk =   0.0090498
        k(  145) = (   0.5000000   0.3000000   0.7000000), wk =   0.0090498
        k(  146) = (   0.5000000   0.3125000   0.6875000), wk =   0.0090498
        k(  147) = (   0.5000000   0.3250000   0.6750000), wk =   0.0090498
        k(  148) = (   0.5000000   0.3375000   0.6625000), wk =   0.0090498
        k(  149) = (   0.5000000   0.3500000   0.6500000), wk =   0.0090498
        k(  150) = (   0.5000000   0.3625000   0.6375000), wk =   0.0090498
        k(  151) = (   0.5000000   0.3750000   0.6250000), wk =   0.0090498
        k(  152) = (   0.5000000   0.3875000   0.6125000), wk =   0.0090498
        k(  153) = (   0.5000000   0.4000000   0.6000000), wk =   0.0090498
        k(  154) = (   0.5000000   0.4125000   0.5875000), wk =   0.0090498
        k(  155) = (   0.5000000   0.4250000   0.5750000), wk =   0.0090498
        k(  156) = (   0.5000000   0.4375000   0.5625000), wk =   0.0090498
        k(  157) = (   0.5000000   0.4500000   0.5500000), wk =   0.0090498
        k(  158) = (   0.5000000   0.4625000   0.5375000), wk =   0.0090498
        k(  159) = (   0.5000000   0.4750000   0.5250000), wk =   0.0090498
        k(  160) = (   0.5000000   0.4875000   0.5125000), wk =   0.0090498
        k(  161) = (   0.5000000   0.5000000   0.5000000), wk =   0.0090498
        k(  162) = (   0.4937500   0.4937500   0.5125000), wk =   0.0090498
        k(  163) = (   0.4875000   0.4875000   0.5250000), wk =   0.0090498
        k(  164) = (   0.4812500   0.4812500   0.5375000), wk =   0.0090498
        k(  165) = (   0.4750000   0.4750000   0.5500000), wk =   0.0090498
        k(  166) = (   0.4687500   0.4687500   0.5625000), wk =   0.0090498
        k(  167) = (   0.4625000   0.4625000   0.5750000), wk =   0.0090498
        k(  168) = (   0.4562500   0.4562500   0.5875000), wk =   0.0090498
        k(  169) = (   0.4500000   0.4500000   0.6000000), wk =   0.0090498
        k(  170) = (   0.4437500   0.4437500   0.6125000), wk =   0.0090498
        k(  171) = (   0.4375000   0.4375000   0.6250000), wk =   0.0090498
        k(  172) = (   0.4312500   0.4312500   0.6375000), wk =   0.0090498
        k(  173) = (   0.4250000   0.4250000   0.6500000), wk =   0.0090498
        k(  174) = (   0.4187500   0.4187500   0.6625000), wk =   0.0090498
        k(  175) = (   0.4125000   0.4125000   0.6750000), wk =   0.0090498
        k(  176) = (   0.4062500   0.4062500   0.6875000), wk =   0.0090498
        k(  177) = (   0.4000000   0.4000000   0.7000000), wk =   0.0090498
        k(  178) = (   0.3937500   0.3937500   0.7125000), wk =   0.0090498
        k(  179) = (   0.3875000   0.3875000   0.7250000), wk =   0.0090498
        k(  180) = (   0.3812500   0.3812500   0.7375000), wk =   0.0090498
        k(  181) = (   0.3750000   0.3750000   0.7500000), wk =   0.0090498
        k(  182) = (   0.3875000   0.3687500   0.7437500), wk =   0.0090498
        k(  183) = (   0.4000000   0.3625000   0.7375000), wk =   0.0090498
        k(  184) = (   0.4125000   0.3562500   0.7312500), wk =   0.0090498
        k(  185) = (   0.4250000   0.3500000   0.7250000), wk =   0.0090498
        k(  186) = (   0.4375000   0.3437500   0.7187500), wk =   0.0090498
        k(  187) = (   0.4500000   0.3375000   0.7125000), wk =   0.0090498
        k(  188) = (   0.4625000   0.3312500   0.7062500), wk =   0.0090498
        k(  189) = (   0.4750000   0.3250000   0.7000000), wk =   0.0090498
        k(  190) = (   0.4875000   0.3187500   0.6937500), wk =   0.0090498
        k(  191) = (   0.5000000   0.3125000   0.6875000), wk =   0.0090498
        k(  192) = (   0.5125000   0.3062500   0.6812500), wk =   0.0090498
        k(  193) = (   0.5250000   0.3000000   0.6750000), wk =   0.0090498
        k(  194) = (   0.5375000   0.2937500   0.6687500), wk =   0.0090498
        k(  195) = (   0.5500000   0.2875000   0.6625000), wk =   0.0090498
        k(  196) = (   0.5625000   0.2812500   0.6562500), wk =   0.0090498
        k(  197) = (   0.5750000   0.2750000   0.6500000), wk =   0.0090498
        k(  198) = (   0.5875000   0.2687500   0.6437500), wk =   0.0090498
        k(  199) = (   0.6000000   0.2625000   0.6375000), wk =   0.0090498
        k(  200) = (   0.6125000   0.2562500   0.6312500), wk =   0.0090498
        k(  201) = (   0.6250000   0.2500000   0.6250000), wk =   0.0090498
        k(  202) = (   0.6187500   0.2375000   0.6187500), wk =   0.0090498
        k(  203) = (   0.6125000   0.2250000   0.6125000), wk =   0.0090498
        k(  204) = (   0.6062500   0.2125000   0.6062500), wk =   0.0090498
        k(  205) = (   0.6000000   0.2000000   0.6000000), wk =   0.0090498
        k(  206) = (   0.5937500   0.1875000   0.5937500), wk =   0.0090498
        k(  207) = (   0.5875000   0.1750000   0.5875000), wk =   0.0090498
        k(  208) = (   0.5812500   0.1625000   0.5812500), wk =   0.0090498
        k(  209) = (   0.5750000   0.1500000   0.5750000), wk =   0.0090498
        k(  210) = (   0.5687500   0.1375000   0.5687500), wk =   0.0090498
        k(  211) = (   0.5625000   0.1250000   0.5625000), wk =   0.0090498
        k(  212) = (   0.5562500   0.1125000   0.5562500), wk =   0.0090498
        k(  213) = (   0.5500000   0.1000000   0.5500000), wk =   0.0090498
        k(  214) = (   0.5437500   0.0875000   0.5437500), wk =   0.0090498
        k(  215) = (   0.5375000   0.0750000   0.5375000), wk =   0.0090498
        k(  216) = (   0.5312500   0.0625000   0.5312500), wk =   0.0090498
        k(  217) = (   0.5250000   0.0500000   0.5250000), wk =   0.0090498
        k(  218) = (   0.5187500   0.0375000   0.5187500), wk =   0.0090498
        k(  219) = (   0.5125000   0.0250000   0.5125000), wk =   0.0090498
        k(  220) = (   0.5062500   0.0125000   0.5062500), wk =   0.0090498
        k(  221) = (   0.5000000   0.0000000   0.5000000), wk =   0.0090498

                       cryst. coord.
        k(    1) = (   0.0000000   0.0000000   0.0000000), wk =   0.0090498
        k(    2) = (   0.0250000   0.0000000   0.0250000), wk =   0.0090498
        k(    3) = (   0.0500000   0.0000000   0.0500000), wk =   0.0090498
        k(    4) = (   0.0750000   0.0000000   0.0750000), wk =   0.0090498
        k(    5) = (   0.1000000   0.0000000   0.1000000), wk =   0.0090498
        k(    6) = (   0.1250000   0.0000000   0.1250000), wk =   0.0090498
        k(    7) = (   0.1500000   0.0000000   0.1500000), wk =   0.0090498
        k(    8) = (   0.1750000   0.0000000   0.1750000), wk =   0.0090498
        k(    9) = (   0.2000000   0.0000000   0.2000000), wk =   0.0090498
        k(   10) = (   0.2250000   0.0000000   0.2250000), wk =   0.0090498
        k(   11) = (   0.2500000   0.0000000   0.2500000), wk =   0.0090498
        k(   12) = (   0.2750000   0.0000000   0.2750000), wk =   0.0090498
        k(   13) = (   0.3000000   0.0000000   0.3000000), wk =   0.0090498
        k(   14) = (   0.3250000   0.0000000   0.3250000), wk =   0.0090498
        k(   15) = (   0.3500000   0.0000000   0.3500000), wk =   0.0090498
        k(   16) = (   0.3750000   0.0000000   0.3750000), wk =   0.0090498
        k(   17) = (   0.4000000   0.0000000   0.4000000), wk =   0.0090498
        k(   18) = (   0.4250000   0.0000000   0.4250000), wk =   0.0090498
        k(   19) = (   0.4500000   0.0000000   0.4500000), wk =   0.0090498
        k(   20) = (   0.4750000   0.0000000   0.4750000), wk =   0.0090498
        k(   21) = (   0.5000000   0.0000000   0.5000000), wk =   0.0090498
        k(   22) = (   0.5000000   0.0125000   0.5125000), wk =   0.0090498
        k(   23) = (   0.5000000   0.0250000   0.5250000), wk =   0.0090498
        k(   24) = (   0.5000000   0.0375000   0.5375000), wk =   0.0090498
        k(   25) = (   0.5000000   0.0500000   0.5500000), wk =   0.0090498
        k(   26) = (   0.5000000   0.0625000   0.5625000), wk =   0.0090498
        k(   27) = (   0.5000000   0.0750000   0.5750000), wk =   0.0090498
        k(   28) = (   0.5000000   0.0875000   0.5875000), wk =   0.0090498
        k(   29) = (   0.5000000   0.1000000   0.6000000), wk =   0.0090498
        k(   30) = (   0.5000000   0.1125000   0.6125000), wk =   0.0090498
        k(   31) = (   0.5000000   0.1250000   0.6250000), wk =   0.0090498
        k(   32) = (   0.5000000   0.1375000   0.6375000), wk =   0.0090498
        k(   33) = (   0.5000000   0.1500000   0.6500000), wk =   0.0090498
        k(   34) = (   0.5000000   0.1625000   0.6625000), wk =   0.0090498
        k(   35) = (   0.5000000   0.1750000   0.6750000), wk =   0.0090498
        k(   36) = (   0.5000000   0.1875000   0.6875000), wk =   0.0090498
        k(   37) = (   0.5000000   0.2000000   0.7000000), wk =   0.0090498
        k(   38) = (   0.5000000   0.2125000   0.7125000), wk =   0.0090498
        k(   39) = (   0.5000000   0.2250000   0.7250000), wk =   0.0090498
        k(   40) = (   0.5000000   0.2375000   0.7375000), wk =   0.0090498
        k(   41) = (   0.5000000   0.2500000   0.7500000), wk =   0.0090498
        k(   42) = (   0.4937500   0.2562500   0.7500000), wk =   0.0090498
        k(   43) = (   0.4875000   0.2625000   0.7500000), wk =   0.0090498
        k(   44) = (   0.4812500   0.2687500   0.7500000), wk =   0.0090498
        k(   45) = (   0.4750000   0.2750000   0.7500000), wk =   0.0090498
        k(   46) = (   0.4687500   0.2812500   0.7500000), wk =   0.0090498
        k(   47) = (   0.4625000   0.2875000   0.7500000), wk =   0.0090498
        k(   48) = (   0.4562500   0.2937500   0.7500000), wk =   0.0090498
        k(   49) = (   0.4500000   0.3000000   0.7500000), wk =   0.0090498
        k(   50) = (   0.4437500   0.3062500   0.7500000), wk =   0.0090498
        k(   51) = (   0.4375000   0.3125000   0.7500000), wk =   0.0090498
        k(   52) = (   0.4312500   0.3187500   0.7500000), wk =   0.0090498
        k(   53) = (   0.4250000   0.3250000   0.7500000), wk =   0.0090498
        k(   54) = (   0.4187500   0.3312500   0.7500000), wk =   0.0090498
        k(   55) = (   0.4125000   0.3375000   0.7500000), wk =   0.0090498
        k(   56) = (   0.4062500   0.3437500   0.7500000), wk =   0.0090498
        k(   57) = (   0.4000000   0.3500000   0.7500000), wk =   0.0090498
        k(   58) = (   0.3937500   0.3562500   0.7500000), wk =   0.0090498
        k(   59) = (   0.3875000   0.3625000   0.7500000), wk =   0.0090498
        k(   60) = (   0.3812500   0.3687500   0.7500000), wk =   0.0090498
        k(   61) = (   0.3750000   0.3750000   0.7500000), wk =   0.0090498
        k(   62) = (   0.3562500   0.3562500   0.7125000), wk =   0.0090498
        k(   63) = (   0.3375000   0.3375000   0.6750000), wk =   0.0090498
        k(   64) = (   0.3187500   0.3187500   0.6375000), wk =   0.0090498
        k(   65) = (   0.3000000   0.3000000   0.6000000), wk =   0.0090498
        k(   66) = (   0.2812500   0.2812500   0.5625000), wk =   0.0090498
        k(   67) = (   0.2625000   0.2625000   0.5250000), wk =   0.0090498
        k(   68) = (   0.2437500   0.2437500   0.4875000), wk =   0.0090498
        k(   69) = (   0.2250000   0.2250000   0.4500000), wk =   0.0090498
        k(   70) = (   0.2062500   0.2062500   0.4125000), wk =   0.0090498
        k(   71) = (   0.1875000   0.1875000   0.3750000), wk =   0.0090498
        k(   72) = (   0.1687500   0.1687500   0.3375000), wk =   0.0090498
        k(   73) = (   0.1500000   0.1500000   0.3000000), wk =   0.0090498
        k(   74) = (   0.1312500   0.1312500   0.2625000), wk =   0.0090498
        k(   75) = (   0.1125000   0.1125000   0.2250000), wk =   0.0090498
        k(   76) = (   0.0937500   0.0937500   0.1875000), wk =   0.0090498
        k(   77) = (   0.0750000   0.0750000   0.1500000), wk =   0.0090498
        k(   78) = (   0.0562500   0.0562500   0.1125000), wk =   0.0090498
        k(   79) = (   0.0375000   0.0375000   0.0750000), wk =   0.0090498
        k(   80) = (   0.0187500   0.0187500   0.0375000), wk =   0.0090498
        k(   81) = (   0.0000000   0.0000000   0.0000000), wk =   0.0090498
        k(   82) = (   0.0250000   0.0250000   0.0250000), wk =   0.0090498
        k(   83) = (   0.0500000   0.0500000   0.0500000), wk =   0.0090498
        k(   84) = (   0.0750000   0.0750000   0.0750000), wk =   0.0090498
        k(   85) = (   0.1000000   0.1000000   0.1000000), wk =   0.0090498
        k(   86) = (   0.1250000   0.1250000   0.1250000), wk =   0.0090498
        k(   87) = (   0.1500000   0.1500000   0.1500000), wk =   0.0090498
        k(   88) = (   0.1750000   0.1750000   0.1750000), wk =   0.0090498
        k(   89) = (   0.2000000   0.2000000   0.2000000), wk =   0.0090498
        k(   90) = (   0.2250000   0.2250000   0.2250000), wk =   0.0090498
        k(   91) = (   0.2500000   0.2500000   0.2500000), wk =   0.0090498
        k(   92) = (   0.2750000   0.2750000   0.2750000), wk =   0.0090498
        k(   93) = (   0.3000000   0.3000000   0.3000000), wk =   0.0090498
        k(   94) = (   0.3250000   0.3250000   0.3250000), wk =   0.0090498
        k(   95) = (   0.3500000   0.3500000   0.3500000), wk =   0.0090498
        k(   96) = (   0.3750000   0.3750000   0.3750000), wk =   0.0090498
        k(   97) = (   0.4000000   0.4000000   0.4000000), wk =   0.0090498
        k(   98) = (   0.4250000   0.4250000   0.4250000), wk =   0.0090498
        k(   99) = (   0.4500000   0.4500000   0.4500000), wk =   0.0090498
        k(  100) = (   0.4750000   0.4750000   0.4750000), wk =   0.0090498
        k(  101) = (   0.5000000   0.5000000   0.5000000), wk =   0.0090498
        k(  102) = (   0.5062500   0.4875000   0.5062500), wk =   0.0090498
        k(  103) = (   0.5125000   0.4750000   0.5125000), wk =   0.0090498
        k(  104) = (   0.5187500   0.4625000   0.5187500), wk =   0.0090498
        k(  105) = (   0.5250000   0.4500000   0.5250000), wk =   0.0090498
        k(  106) = (   0.5312500   0.4375000   0.5312500), wk =   0.0090498
        k(  107) = (   0.5375000   0.4250000   0.5375000), wk =   0.0090498
        k(  108) = (   0.5437500   0.4125000   0.5437500), wk =   0.0090498
        k(  109) = (   0.5500000   0.4000000   0.5500000), wk =   0.0090498
        k(  110) = (   0.5562500   0.3875000   0.5562500), wk =   0.0090498
        k(  111) = (   0.5625000   0.3750000   0.5625000), wk =   0.0090498
        k(  112) = (   0.5687500   0.3625000   0.5687500), wk =   0.0090498
        k(  113) = (   0.5750000   0.3500000   0.5750000), wk =   0.0090498
        k(  114) = (   0.5812500   0.3375000   0.5812500), wk =   0.0090498
        k(  115) = (   0.5875000   0.3250000   0.5875000), wk =   0.0090498
        k(  116) = (   0.5937500   0.3125000   0.5937500), wk =   0.0090498
        k(  117) = (   0.6000000   0.3000000   0.6000000), wk =   0.0090498
        k(  118) = (   0.6062500   0.2875000   0.6062500), wk =   0.0090498
        k(  119) = (   0.6125000   0.2750000   0.6125000), wk =   0.0090498
        k(  120) = (   0.6187500   0.2625000   0.6187500), wk =   0.0090498
        k(  121) = (   0.6250000   0.2500000   0.6250000), wk =   0.0090498
        k(  122) = (   0.6187500   0.2500000   0.6312500), wk =   0.0090498
        k(  123) = (   0.6125000   0.2500000   0.6375000), wk =   0.0090498
        k(  124) = (   0.6062500   0.2500000   0.6437500), wk =   0.0090498
        k(  125) = (   0.6000000   0.2500000   0.6500000), wk =   0.0090498
        k(  126) = (   0.5937500   0.2500000   0.6562500), wk =   0.0090498
        k(  127) = (   0.5875000   0.2500000   0.6625000), wk =   0.0090498
        k(  128) = (   0.5812500   0.2500000   0.6687500), wk =   0.0090498
        k(  129) = (   0.5750000   0.2500000   0.6750000), wk =   0.0090498
        k(  130) = (   0.5687500   0.2500000   0.6812500), wk =   0.0090498
        k(  131) = (   0.5625000   0.2500000   0.6875000), wk =   0.0090498
        k(  132) = (   0.5562500   0.2500000   0.6937500), wk =   0.0090498
        k(  133) = (   0.5500000   0.2500000   0.7000000), wk =   0.0090498
        k(  134) = (   0.5437500   0.2500000   0.7062500), wk =   0.0090498
        k(  135) = (   0.5375000   0.2500000   0.7125000), wk =   0.0090498
        k(  136) = (   0.5312500   0.2500000   0.7187500), wk =   0.0090498
        k(  137) = (   0.5250000   0.2500000   0.7250000), wk =   0.0090498
        k(  138) = (   0.5187500   0.2500000   0.7312500), wk =   0.0090498
        k(  139) = (   0.5125000   0.2500000   0.7375000), wk =   0.0090498
        k(  140) = (   0.5062500   0.2500000   0.7437500), wk =   0.0090498
        k(  141) = (   0.5000000   0.2500000   0.7500000), wk =   0.0090498
        k(  142) = (   0.5000000   0.2625000   0.7375000), wk =   0.0090498
        k(  143) = (   0.5000000   0.2750000   0.7250000), wk =   0.0090498
        k(  144) = (   0.5000000   0.2875000   0.7125000), wk =   0.0090498
        k(  145) = (   0.5000000   0.3000000   0.7000000), wk =   0.0090498
        k(  146) = (   0.5000000   0.3125000   0.6875000), wk =   0.0090498
        k(  147) = (   0.5000000   0.3250000   0.6750000), wk =   0.0090498
        k(  148) = (   0.5000000   0.3375000   0.6625000), wk =   0.0090498
        k(  149) = (   0.5000000   0.3500000   0.6500000), wk =   0.0090498
        k(  150) = (   0.5000000   0.3625000   0.6375000), wk =   0.0090498
        k(  151) = (   0.5000000   0.3750000   0.6250000), wk =   0.0090498
        k(  152) = (   0.5000000   0.3875000   0.6125000), wk =   0.0090498
        k(  153) = (   0.5000000   0.4000000   0.6000000), wk =   0.0090498
        k(  154) = (   0.5000000   0.4125000   0.5875000), wk =   0.0090498
        k(  155) = (   0.5000000   0.4250000   0.5750000), wk =   0.0090498
        k(  156) = (   0.5000000   0.4375000   0.5625000), wk =   0.0090498
        k(  157) = (   0.5000000   0.4500000   0.5500000), wk =   0.0090498
        k(  158) = (   0.5000000   0.4625000   0.5375000), wk =   0.0090498
        k(  159) = (   0.5000000   0.4750000   0.5250000), wk =   0.0090498
        k(  160) = (   0.5000000   0.4875000   0.5125000), wk =   0.0090498
        k(  161) = (   0.5000000   0.5000000   0.5000000), wk =   0.0090498
        k(  162) = (   0.4937500   0.4937500   0.5125000), wk =   0.0090498
        k(  163) = (   0.4875000   0.4875000   0.5250000), wk =   0.0090498
        k(  164) = (   0.4812500   0.4812500   0.5375000), wk =   0.0090498
        k(  165) = (   0.4750000   0.4750000   0.5500000), wk =   0.0090498
        k(  166) = (   0.4687500   0.4687500   0.5625000), wk =   0.0090498
        k(  167) = (   0.4625000   0.4625000   0.5750000), wk =   0.0090498
        k(  168) = (   0.4562500   0.4562500   0.5875000), wk =   0.0090498
        k(  169) = (   0.4500000   0.4500000   0.6000000), wk =   0.0090498
        k(  170) = (   0.4437500   0.4437500   0.6125000), wk =   0.0090498
        k(  171) = (   0.4375000   0.4375000   0.6250000), wk =   0.0090498
        k(  172) = (   0.4312500   0.4312500   0.6375000), wk =   0.0090498
        k(  173) = (   0.4250000   0.4250000   0.6500000), wk =   0.0090498
        k(  174) = (   0.4187500   0.4187500   0.6625000), wk =   0.0090498
        k(  175) = (   0.4125000   0.4125000   0.6750000), wk =   0.0090498
        k(  176) = (   0.4062500   0.4062500   0.6875000), wk =   0.0090498
        k(  177) = (   0.4000000   0.4000000   0.7000000), wk =   0.0090498
        k(  178) = (   0.3937500   0.3937500   0.7125000), wk =   0.0090498
        k(  179) = (   0.3875000   0.3875000   0.7250000), wk =   0.0090498
        k(  180) = (   0.3812500   0.3812500   0.7375000), wk =   0.0090498
        k(  181) = (   0.3750000   0.3750000   0.7500000), wk =   0.0090498
        k(  182) = (   0.3875000   0.3687500   0.7437500), wk =   0.0090498
        k(  183) = (   0.4000000   0.3625000   0.7375000), wk =   0.0090498
        k(  184) = (   0.4125000   0.3562500   0.7312500), wk =   0.0090498
        k(  185) = (   0.4250000   0.3500000   0.7250000), wk =   0.0090498
        k(  186) = (   0.4375000   0.3437500   0.7187500), wk =   0.0090498
        k(  187) = (   0.4500000   0.3375000   0.7125000), wk =   0.0090498
        k(  188) = (   0.4625000   0.3312500   0.7062500), wk =   0.0090498
        k(  189) = (   0.4750000   0.3250000   0.7000000), wk =   0.0090498
        k(  190) = (   0.4875000   0.3187500   0.6937500), wk =   0.0090498
        k(  191) = (   0.5000000   0.3125000   0.6875000), wk =   0.0090498
        k(  192) = (   0.5125000   0.3062500   0.6812500), wk =   0.0090498
        k(  193) = (   0.5250000   0.3000000   0.6750000), wk =   0.0090498
        k(  194) = (   0.5375000   0.2937500   0.6687500), wk =   0.0090498
        k(  195) = (   0.5500000   0.2875000   0.6625000), wk =   0.0090498
        k(  196) = (   0.5625000   0.2812500   0.6562500), wk =   0.0090498
        k(  197) = (   0.5750000   0.2750000   0.6500000), wk =   0.0090498
        k(  198) = (   0.5875000   0.2687500   0.6437500), wk =   0.0090498
        k(  199) = (   0.6000000   0.2625000   0.6375000), wk =   0.0090498
        k(  200) = (   0.6125000   0.2562500   0.6312500), wk =   0.0090498
        k(  201) = (   0.6250000   0.2500000   0.6250000), wk =   0.0090498
        k(  202) = (   0.6187500   0.2375000   0.6187500), wk =   0.0090498
        k(  203) = (   0.6125000   0.2250000   0.6125000), wk =   0.0090498
        k(  204) = (   0.6062500   0.2125000   0.6062500), wk =   0.0090498
        k(  205) = (   0.6000000   0.2000000   0.6000000), wk =   0.0090498
        k(  206) = (   0.5937500   0.1875000   0.5937500), wk =   0.0090498
        k(  207) = (   0.5875000   0.1750000   0.5875000), wk =   0.0090498
        k(  208) = (   0.5812500   0.1625000   0.5812500), wk =   0.0090498
        k(  209) = (   0.5750000   0.1500000   0.5750000), wk =   0.0090498
        k(  210) = (   0.5687500   0.1375000   0.5687500), wk =   0.0090498
        k(  211) = (   0.5625000   0.1250000   0.5625000), wk =   0.0090498
        k(  212) = (   0.5562500   0.1125000   0.5562500), wk =   0.0090498
        k(  213) = (   0.5500000   0.1000000   0.5500000), wk =   0.0090498
        k(  214) = (   0.5437500   0.0875000   0.5437500), wk =   0.0090498
        k(  215) = (   0.5375000   0.0750000   0.5375000), wk =   0.0090498
        k(  216) = (   0.5312500   0.0625000   0.5312500), wk =   0.0090498
        k(  217) = (   0.5250000   0.0500000   0.5250000), wk =   0.0090498
        k(  218) = (   0.5187500   0.0375000   0.5187500), wk =   0.0090498
        k(  219) = (   0.5125000   0.0250000   0.5125000), wk =   0.0090498
        k(  220) = (   0.5062500   0.0125000   0.5062500), wk =   0.0090498
        k(  221) = (   0.5000000   0.0000000   0.5000000), wk =   0.0090498

     Dense  grid:    13133 G-vectors     FFT dimensions: (  30,  30,  30)

     Dynamical RAM for                 wfc:       0.40 MB

     Dynamical RAM for     wfc (w. buffer):       0.40 MB

     Dynamical RAM for           str. fact:       0.20 MB

     Dynamical RAM for           local pot:       0.00 MB

     Dynamical RAM for          nlocal pot:       1.59 MB

     Dynamical RAM for                qrad:       0.21 MB

     Dynamical RAM for          rho,v,vnew:       1.22 MB

     Dynamical RAM for           G-vectors:       0.85 MB

     Dynamical RAM for          h,s,v(r/c):       0.05 MB

     Dynamical RAM for          <psi|beta>:       0.02 MB

     Dynamical RAM for                 psi:       0.80 MB

     Dynamical RAM for                hpsi:       0.80 MB

     Dynamical RAM for                spsi:       0.80 MB

     Dynamical RAM for      wfcinit/wfcrot:       1.62 MB

     Dynamical RAM for           addusdens:       2.71 MB

     Estimated static dynamical RAM per process >       5.90 MB

     Estimated max dynamical RAM per process >       8.61 MB

     Estimated total dynamical RAM >      34.42 MB

     Check: negative core charge=   -0.000010

     The potential is recalculated from file :
     /home/ponet/.julia/environments/DFControlDEV/outputs/Si.save/charge-density

     Starting wfcs are   32 randomized atomic wfcs
     Checking if some PAW data can be deallocated... 

     Band Structure Calculation
     Davidson diagonalization with overlap

     Computing kpt #:     1  of    56 on this pool
     total cpu time spent up to now is        0.4 secs

     Computing kpt #:     2  of    56 on this pool
     total cpu time spent up to now is        0.6 secs

     Computing kpt #:     3  of    56 on this pool
     total cpu time spent up to now is        0.9 secs

     Computing kpt #:     4  of    56 on this pool
     total cpu time spent up to now is        1.1 secs

     Computing kpt #:     5  of    56 on this pool
     total cpu time spent up to now is        1.3 secs

     Computing kpt #:     6  of    56 on this pool
     total cpu time spent up to now is        1.5 secs

     Computing kpt #:     7  of    56 on this pool
     total cpu time spent up to now is        1.7 secs

     Computing kpt #:     8  of    56 on this pool
     total cpu time spent up to now is        1.8 secs

     Computing kpt #:     9  of    56 on this pool
     total cpu time spent up to now is        2.0 secs

     Computing kpt #:    10  of    56 on this pool
     total cpu time spent up to now is        2.2 secs

     Computing kpt #:    11  of    56 on this pool
     total cpu time spent up to now is        2.4 secs

     Computing kpt #:    12  of    56 on this pool
     total cpu time spent up to now is        2.6 secs

     Computing kpt #:    13  of    56 on this pool
     total cpu time spent up to now is        2.8 secs

     Computing kpt #:    14  of    56 on this pool
     total cpu time spent up to now is        3.0 secs

     Computing kpt #:    15  of    56 on this pool
     total cpu time spent up to now is        3.2 secs

     Computing kpt #:    16  of    56 on this pool
     total cpu time spent up to now is        3.4 secs

     Computing kpt #:    17  of    56 on this pool
     total cpu time spent up to now is        3.6 secs

     Computing kpt #:    18  of    56 on this pool
     total cpu time spent up to now is        3.8 secs

     Computing kpt #:    19  of    56 on this pool
     total cpu time spent up to now is        4.0 secs

     Computing kpt #:    20  of    56 on this pool
     total cpu time spent up to now is        4.2 secs

     Computing kpt #:    21  of    56 on this pool
     total cpu time spent up to now is        4.4 secs

     Computing kpt #:    22  of    56 on this pool
     total cpu time spent up to now is        4.6 secs

     Computing kpt #:    23  of    56 on this pool
     total cpu time spent up to now is        4.8 secs

     Computing kpt #:    24  of    56 on this pool
     total cpu time spent up to now is        5.0 secs

     Computing kpt #:    25  of    56 on this pool
     total cpu time spent up to now is        5.2 secs

     Computing kpt #:    26  of    56 on this pool
     total cpu time spent up to now is        5.4 secs

     Computing kpt #:    27  of    56 on this pool
     total cpu time spent up to now is        5.6 secs

     Computing kpt #:    28  of    56 on this pool
     total cpu time spent up to now is        5.8 secs

     Computing kpt #:    29  of    56 on this pool
     total cpu time spent up to now is        6.0 secs

     Computing kpt #:    30  of    56 on this pool
     total cpu time spent up to now is        6.2 secs

     Computing kpt #:    31  of    56 on this pool
     total cpu time spent up to now is        6.4 secs

     Computing kpt #:    32  of    56 on this pool
     total cpu time spent up to now is        6.6 secs

     Computing kpt #:    33  of    56 on this pool
     total cpu time spent up to now is        6.7 secs

     Computing kpt #:    34  of    56 on this pool
     total cpu time spent up to now is        6.9 secs

     Computing kpt #:    35  of    56 on this pool
     total cpu time spent up to now is        7.1 secs

     Computing kpt #:    36  of    56 on this pool
     total cpu time spent up to now is        7.3 secs

     Computing kpt #:    37  of    56 on this pool
     total cpu time spent up to now is        7.5 secs

     Computing kpt #:    38  of    56 on this pool
     total cpu time spent up to now is        7.7 secs

     Computing kpt #:    39  of    56 on this pool
     total cpu time spent up to now is        7.9 secs

     Computing kpt #:    40  of    56 on this pool
     total cpu time spent up to now is        8.0 secs

     Computing kpt #:    41  of    56 on this pool
     total cpu time spent up to now is        8.2 secs

     Computing kpt #:    42  of    56 on this pool
     total cpu time spent up to now is        8.4 secs

     Computing kpt #:    43  of    56 on this pool
     total cpu time spent up to now is        8.6 secs

     Computing kpt #:    44  of    56 on this pool
     total cpu time spent up to now is        8.8 secs

     Computing kpt #:    45  of    56 on this pool
     total cpu time spent up to now is        9.0 secs

     Computing kpt #:    46  of    56 on this pool
     total cpu time spent up to now is        9.1 secs

     Computing kpt #:    47  of    56 on this pool
     total cpu time spent up to now is        9.3 secs

     Computing kpt #:    48  of    56 on this pool
     total cpu time spent up to now is        9.5 secs

     Computing kpt #:    49  of    56 on this pool
     total cpu time spent up to now is        9.7 secs

     Computing kpt #:    50  of    56 on this pool
     total cpu time spent up to now is        9.9 secs

     Computing kpt #:    51  of    56 on this pool
     total cpu time spent up to now is       10.0 secs

     Computing kpt #:    52  of    56 on this pool
     total cpu time spent up to now is       10.2 secs

     Computing kpt #:    53  of    56 on this pool
     total cpu time spent up to now is       10.4 secs

     Computing kpt #:    54  of    56 on this pool
     total cpu time spent up to now is       10.6 secs

     Computing kpt #:    55  of    56 on this pool
     total cpu time spent up to now is       10.8 secs

     Computing kpt #:    56  of    56 on this pool
     total cpu time spent up to now is       11.0 secs

     ethr =  3.12E-09,  avg # of iterations = 26.4

     total cpu time spent up to now is       11.0 secs

     End of band structure calculation

          k = 0.0000 0.0000 0.0000 (  1647 PWs)   bands (ev):

    -5.8294  -1.6690  -1.6690  -1.6690  -1.6689  -1.6689  -1.6668   3.2886
     3.2886   3.2886   3.2893   3.2893   3.2893   6.1733   6.1733   6.1733

          k = 0.0250 0.0000 0.0250 (  1641 PWs)   bands (ev):

    -5.8239  -1.8604  -1.8597  -1.6707  -1.6626  -1.4722  -1.4715   3.2502
     3.2821   3.2825   3.2830   3.2834   3.2934   6.1137   6.1488   6.1709

          k = 0.0500 0.0000 0.0500 (  1641 PWs)   bands (ev):

    -5.8075  -2.0456  -2.0449  -1.6774  -1.6449  -1.2714  -1.2708   3.1413
     3.2614   3.2617   3.2676   3.2681   3.3067   5.9492   6.0770   6.1637

          k = 0.0750 0.0000 0.0750 (  1645 PWs)   bands (ev):

    -5.7800  -2.2237  -2.2230  -1.6894  -1.6153  -1.0688  -1.0682   2.9815
     3.2264   3.2266   3.2469   3.2474   3.3287   5.7103   5.9629   6.1513

          k = 0.1000 0.0000 0.1000 (  1637 PWs)   bands (ev):

    -5.7417  -2.3941  -2.3933  -1.7079  -1.5737  -0.8660  -0.8654   2.7921
     3.1785   3.1787   3.2256   3.2262   3.3597   5.4254   5.8131   6.1335

          k = 0.1250 0.0000 0.1250 (  1643 PWs)   bands (ev):

    -5.6924  -2.5561  -2.5553  -1.7350  -1.5205  -0.6655  -0.6649   2.5912
     3.1199   3.1200   3.2089   3.2095   3.3992   5.1141   5.6349   6.1097

          k = 0.1500 0.0000 0.1500 (  1643 PWs)   bands (ev):

    -5.6325  -2.7091  -2.7084  -1.7729  -1.4555  -0.4701  -0.4696   2.3930
     3.0533   3.0533   3.2021   3.2027   3.4471   4.7886   5.4331   6.0792

          k = 0.1750 0.0000 0.1750 (  1642 PWs)   bands (ev):

    -5.5618  -2.8528  -2.8521  -1.8237  -1.3788  -0.2832  -0.2827   2.2080
     2.9815   2.9815   3.2104   3.2111   3.5034   4.4566   5.2159   6.0412

          k = 0.2000 0.0000 0.2000 (  1630 PWs)   bands (ev):

    -5.4805  -2.9869  -2.9862  -1.8901  -1.2903  -0.1083  -0.1079   2.0443
     2.9072   2.9072   3.2387   3.2394   3.5679   4.1250   4.9876   5.9958

          k = 0.2250 0.0000 0.2250 (  1632 PWs)   bands (ev):

    -5.3888  -3.1111  -3.1103  -1.9738  -1.1901   0.0508   0.0512   1.9079
     2.8326   2.8326   3.2913   3.2921   3.6403   3.7951   4.7519   5.9417

          k = 0.2500 0.0000 0.2500 (  1628 PWs)   bands (ev):

    -5.2869  -3.2251  -3.2244  -2.0764  -1.0783   0.1914   0.1917   1.8024
     2.7598   2.7598   3.3716   3.3724   3.4687   3.7202   4.5121   5.8785

          k = 0.2750 0.0000 0.2750 (  1622 PWs)   bands (ev):

    -5.1749  -3.3288  -3.3280  -2.1975  -0.9548   0.3111   0.3115   1.7302
     2.6902   2.6902   3.1494   3.4811   3.4819   3.8075   4.2712   5.8063

          k = 0.3000 0.0000 0.3000 (  1620 PWs)   bands (ev):

    -5.0531  -3.4219  -3.4212  -2.3363  -0.8198   0.4096   0.4099   1.6916
     2.6252   2.6253   2.8371   3.6190   3.6200   3.9015   4.0313   5.7254

          k = 0.3250 0.0000 0.3250 (  1614 PWs)   bands (ev):

    -4.9218  -3.5044  -3.5036  -2.4908  -0.6733   0.4877   0.4879   1.6856
     2.5332   2.5659   2.5660   3.7824   3.7834   3.7950   4.0019   5.6353

          k = 0.3500 0.0000 0.3500 (  1618 PWs)   bands (ev):

    -4.7813  -3.5761  -3.5753  -2.6582  -0.5153   0.5473   0.5476   1.7102
     2.2377   2.5130   2.5131   3.5635   3.9655   3.9665   4.1082   5.5370

          k = 0.3750 0.0000 0.3750 (  1632 PWs)   bands (ev):

    -4.6320  -3.6369  -3.6362  -2.8356  -0.3459   0.5915   0.5917   1.7629
     1.9507   2.4673   2.4675   3.3385   4.1603   4.1613   4.2198   5.4305

          k = 0.4000 0.0000 0.4000 (  1636 PWs)   bands (ev):

    -4.4745  -3.6868  -3.6860  -3.0200  -0.1654   0.6230   0.6232   1.6740
     1.8411   2.4294   2.4296   3.1217   4.3359   4.3561   4.3571   5.3184

          k = 0.4250 0.0000 0.4250 (  1636 PWs)   bands (ev):

    -4.3092  -3.7257  -3.7249  -3.2084   0.0266   0.6446   0.6448   1.4072
     1.9422   2.3994   2.3996   2.9141   4.4559   4.5387   4.5397   5.2010

          k = 0.4500 0.0000 0.4500 (  1634 PWs)   bands (ev):

    -4.1370  -3.7534  -3.7527  -3.3985   0.2296   0.6583   0.6585   1.1505
     2.0639   2.3780   2.3782   2.7172   4.5788   4.6905   4.6916   5.0797

          k = 0.4750 0.0000 0.4750 (  1638 PWs)   bands (ev):

    -3.9587  -3.7701  -3.7693  -3.5881   0.4436   0.6660   0.6662   0.9042
     2.2040   2.3650   2.3652   2.5323   4.7036   4.7928   4.7939   4.9556

          k = 0.5000 0.0000 0.5000 (  1628 PWs)   bands (ev):

    -3.7759  -3.7757  -3.7757  -3.7739   0.6684   0.6684   0.6685   0.6687
     2.3603   2.3608   2.3608   2.3611   4.8292   4.8297   4.8305   4.8305

          k = 0.5000 0.0125 0.5125 (  1632 PWs)   bands (ev):

    -3.8213  -3.8203  -3.7286  -3.7276   0.6066   0.6068   0.7216   0.7218
     2.3257   2.3261   2.4080   2.4084   4.7961   4.7964   4.8592   4.8594

          k = 0.5000 0.0250 0.5250 (  1638 PWs)   bands (ev):

    -3.8651  -3.8640  -3.6799  -3.6788   0.5369   0.5371   0.7658   0.7660
     2.3028   2.3032   2.4680   2.4684   4.7583   4.7586   4.8840   4.8842

          k = 0.5000 0.0375 0.5375 (  1638 PWs)   bands (ev):

    -3.9068  -3.9058  -3.6297  -3.6287   0.4603   0.4606   0.8013   0.8015
     2.2909   2.2914   2.5403   2.5407   4.7168   4.7171   4.9045   4.9048

          k = 0.5000 0.0500 0.5500 (  1638 PWs)   bands (ev):

    -3.9466  -3.9456  -3.5784  -3.5774   0.3783   0.3786   0.8286   0.8289
     2.2890   2.2895   2.6238   2.6243   4.6717   4.6720   4.9207   4.9209

          k = 0.5000 0.0625 0.5625 (  1638 PWs)   bands (ev):

    -3.9843  -3.9833  -3.5261  -3.5251   0.2922   0.2926   0.8487   0.8490
     2.2958   2.2963   2.7175   2.7180   4.6234   4.6237   4.9323   4.9325

          k = 0.5000 0.0750 0.5750 (  1638 PWs)   bands (ev):

    -4.0198  -4.0188  -3.4732  -3.4721   0.2035   0.2039   0.8626   0.8630
     2.3099   2.3104   2.8199   2.8204   4.5725   4.5728   4.9393   4.9395

          k = 0.5000 0.0875 0.5875 (  1640 PWs)   bands (ev):

    -4.0531  -4.0521  -3.4198  -3.4188   0.1135   0.1139   0.8714   0.8718
     2.3302   2.3308   2.9296   2.9301   4.5193   4.5196   4.9419   4.9421

          k = 0.5000 0.1000 0.6000 (  1636 PWs)   bands (ev):

    -4.0841  -4.0831  -3.3664  -3.3654   0.0235   0.0239   0.8762   0.8767
     2.3556   2.3562   3.0450   3.0455   4.4645   4.4647   4.9400   4.9402

          k = 0.5000 0.1125 0.6125 (  1634 PWs)   bands (ev):

    -4.1128  -4.1118  -3.3133  -3.3123  -0.0654  -0.0649   0.8779   0.8784
     2.3851   2.3858   3.1647   3.1653   4.4086   4.4088   4.9333   4.9336

          k = 0.5000 0.1250 0.6250 (  1632 PWs)   bands (ev):

    -4.1391  -4.1380  -3.2612  -3.2602  -0.1520  -0.1516   0.8774   0.8779
     2.4175   2.4182   3.2875   3.2881   4.3523   4.3526   4.9220   4.9222

          k = 0.5000 0.1375 0.6375 (  1632 PWs)   bands (ev):

    -4.1630  -4.1619  -3.2104  -3.2094  -0.2351  -0.2347   0.8752   0.8758
     2.4519   2.4527   3.4118   3.4124   4.2966   4.2968   4.9056   4.9059

          k = 0.5000 0.1500 0.6500 (  1628 PWs)   bands (ev):

    -4.1844  -4.1834  -3.1617  -3.1607  -0.3138  -0.3135   0.8721   0.8727
     2.4875   2.4882   3.5367   3.5372   4.2420   4.2422   4.8840   4.8843

          k = 0.5000 0.1625 0.6625 (  1630 PWs)   bands (ev):

    -4.2034  -4.2024  -3.1157  -3.1147  -0.3869  -0.3866   0.8684   0.8690
     2.5230   2.5237   3.6603   3.6608   4.1897   4.1899   4.8568   4.8572

          k = 0.5000 0.1750 0.6750 (  1634 PWs)   bands (ev):

    -4.2199  -4.2189  -3.0733  -3.0723  -0.4534  -0.4531   0.8645   0.8651
     2.5573   2.5581   3.7817   3.7822   4.1407   4.1408   4.8239   4.8243

          k = 0.5000 0.1875 0.6875 (  1632 PWs)   bands (ev):

    -4.2339  -4.2329  -3.0353  -3.0344  -0.5121  -0.5118   0.8608   0.8614
     2.5894   2.5902   3.8993   3.8998   4.0961   4.0963   4.7849   4.7853

          k = 0.5000 0.2000 0.7000 (  1632 PWs)   bands (ev):

    -4.2454  -4.2444  -3.0026  -3.0016  -0.5619  -0.5617   0.8575   0.8581
     2.6181   2.6190   4.0113   4.0116   4.0573   4.0574   4.7398   4.7404

          k = 0.5000 0.2125 0.7125 (  1638 PWs)   bands (ev):

    -4.2543  -4.2533  -2.9760  -2.9751  -0.6019  -0.6018   0.8547   0.8553
     2.6420   2.6429   4.0252   4.0253   4.1155   4.1158   4.6895   4.6901

          k = 0.5000 0.2250 0.7250 (  1644 PWs)   bands (ev):

    -4.2607  -4.2597  -2.9564  -2.9554  -0.6313  -0.6311   0.8526   0.8532
     2.6602   2.6611   4.0013   4.0013   4.2083   4.2085   4.6363   4.6371

          k = 0.5000 0.2375 0.7375 (  1644 PWs)   bands (ev):

    -4.2646  -4.2635  -2.9443  -2.9434  -0.6491  -0.6491   0.8513   0.8519
     2.6715   2.6724   3.9865   3.9865   4.2807   4.2808   4.5880   4.5890

          k = 0.5000 0.2500 0.7500 (  1622 PWs)   bands (ev):

    -4.2658  -4.2648  -2.9403  -2.9393  -0.6551  -0.6551   0.8511   0.8517
     2.6754   2.6763   3.9815   3.9815   4.3116   4.3119   4.5659   4.5670

          k = 0.4938 0.2563 0.7500 (  1649 PWs)   bands (ev):

    -4.2785  -4.2292  -2.9542  -2.9526  -0.6569  -0.6555   0.7889   0.8487
     2.7031   2.7047   4.0034   4.0042   4.2730   4.3621   4.5547   4.5943

          k = 0.4875 0.2625 0.7500 (  1649 PWs)   bands (ev):

    -4.2911  -4.1926  -2.9701  -2.9650  -0.6588  -0.6533   0.7275   0.8461
     2.7288   2.7344   4.0253   4.0282   4.2319   4.4071   4.5458   4.6268

          k = 0.4813 0.2688 0.7500 (  1649 PWs)   bands (ev):

    -4.3029  -4.1557  -2.9880  -2.9766  -0.6607  -0.6485   0.6669   0.8435
     2.7526   2.7651   4.0471   4.0533   4.1887   4.4452   4.5384   4.6645

          k = 0.4750 0.2750 0.7500 (  1646 PWs)   bands (ev):

    -4.3141  -4.1186  -3.0078  -2.9876  -0.6626  -0.6410   0.6071   0.8409
     2.7749   2.7968   4.0687   4.0796   4.1441   4.4764   4.5318   4.7074

          k = 0.4688 0.2813 0.7500 (  1644 PWs)   bands (ev):

    -4.3247  -4.0811  -3.0293  -2.9980  -0.6646  -0.6310   0.5481   0.8384
     2.7951   2.8294   4.0903   4.0985   4.1067   4.5015   4.5255   4.7545

          k = 0.4625 0.2875 0.7500 (  1644 PWs)   bands (ev):

    -4.3345  -4.0433  -3.0525  -3.0077  -0.6666  -0.6184   0.4900   0.8358
     2.8135   2.8629   4.0523   4.1117   4.1342   4.5191   4.5216   4.8042

          k = 0.4563 0.2938 0.7500 (  1643 PWs)   bands (ev):

    -4.3437  -4.0053  -3.0773  -3.0167  -0.6685  -0.6034   0.4328   0.8334
     2.8303   2.8973   4.0057   4.1328   4.1619   4.5127   4.5381   4.8551

          k = 0.4500 0.3000 0.7500 (  1645 PWs)   bands (ev):

    -4.3522  -3.9671  -3.1037  -3.0250  -0.6704  -0.5859   0.3765   0.8310
     2.8454   2.9325   3.9590   4.1537   4.1895   4.5058   4.5518   4.9059

          k = 0.4438 0.3063 0.7500 (  1641 PWs)   bands (ev):

    -4.3600  -3.9287  -3.1314  -3.0328  -0.6722  -0.5660   0.3213   0.8287
     2.8589   2.9686   3.9121   4.1744   4.2168   4.4985   4.5634   4.9557

          k = 0.4375 0.3125 0.7500 (  1641 PWs)   bands (ev):

    -4.3671  -3.8901  -3.1605  -3.0398  -0.6739  -0.5439   0.2669   0.8266
     2.8709   3.0054   3.8653   4.1947   4.2432   4.4906   4.5732   5.0038

          k = 0.4313 0.3188 0.7500 (  1638 PWs)   bands (ev):

    -4.3736  -3.8514  -3.1909  -3.0462  -0.6755  -0.5195   0.2136   0.8247
     2.8815   3.0429   3.8185   4.2147   4.2686   4.4820   4.5817   5.0495

          k = 0.4250 0.3250 0.7500 (  1638 PWs)   bands (ev):

    -4.3794  -3.8126  -3.2224  -3.0519  -0.6770  -0.4930   0.1614   0.8229
     2.8906   3.0812   3.7720   4.2343   4.2924   4.4728   4.5889   5.0922

          k = 0.4188 0.3313 0.7500 (  1637 PWs)   bands (ev):

    -4.3845  -3.7738  -3.2550  -3.0569  -0.6783  -0.4645   0.1102   0.8213
     2.8986   3.1201   3.7256   4.2534   4.3146   4.4629   4.5951   5.1314

          k = 0.4125 0.3375 0.7500 (  1639 PWs)   bands (ev):

    -4.3889  -3.7350  -3.2885  -3.0613  -0.6794  -0.4340   0.0602   0.8198
     2.9053   3.1598   3.6795   4.2722   4.3345   4.4523   4.6002   5.1665

          k = 0.4063 0.3438 0.7500 (  1639 PWs)   bands (ev):

    -4.3927  -3.6962  -3.3229  -3.0650  -0.6805  -0.4016   0.0114   0.8186
     2.9109   3.2001   3.6337   4.2905   4.3519   4.4410   4.6045   5.1972

          k = 0.4000 0.3500 0.7500 (  1639 PWs)   bands (ev):

    -4.3957  -3.6575  -3.3580  -3.0680  -0.6813  -0.3674  -0.0363   0.8176
     2.9154   3.2411   3.5881   4.3082   4.3669   4.4287   4.6079   5.2230

          k = 0.3938 0.3563 0.7500 (  1637 PWs)   bands (ev):

    -4.3981  -3.6190  -3.3938  -3.0703  -0.6819  -0.3314  -0.0827   0.8168
     2.9189   3.2826   3.5431   4.3254   4.3786   4.4160   4.6107   5.2435

          k = 0.3875 0.3625 0.7500 (  1635 PWs)   bands (ev):

    -4.3998  -3.5806  -3.4303  -3.0720  -0.6824  -0.2937  -0.1277   0.8163
     2.9213   3.3247   3.4984   4.3422   4.3871   4.4026   4.6126   5.2583

          k = 0.3813 0.3688 0.7500 (  1635 PWs)   bands (ev):

    -4.4009  -3.5425  -3.4672  -3.0730  -0.6827  -0.2545  -0.1714   0.8159
     2.9228   3.3674   3.4543   4.3582   4.3884   4.3922   4.6137   5.2673

          k = 0.3750 0.3750 0.7500 (  1638 PWs)   bands (ev):

    -4.4012  -3.5051  -3.5042  -3.0734  -0.6828  -0.2137  -0.2137   0.8158
     2.9232   3.4104   3.4107   4.3732   4.3741   4.3939   4.6140   5.2702

          k = 0.3563 0.3563 0.7125 (  1634 PWs)   bands (ev):

    -4.4322  -3.4264  -3.4256  -3.1465  -0.6479  -0.3451  -0.3450   0.8026
     3.1124   3.4375   3.4380   4.3659   4.3665   4.3766   4.9340   5.2427

          k = 0.3375 0.3375 0.6750 (  1632 PWs)   bands (ev):

    -4.4452  -3.3422  -3.3413  -3.2848  -0.5175  -0.4559  -0.4558   0.7969
     3.3118   3.3785   3.3792   4.3742   4.3757   4.3761   5.1375   5.1798

          k = 0.3188 0.3188 0.6375 (  1634 PWs)   bands (ev):

    -4.4402  -3.4684  -3.2546  -3.2537  -0.5435  -0.5435  -0.3103   0.7991
     3.2647   3.2655   3.5190   4.3598   4.3601   4.3871   5.0839   5.1757

          k = 0.3000 0.3000 0.6000 (  1633 PWs)   bands (ev):

    -4.4169  -3.6776  -3.1660  -3.1651  -0.6065  -0.6064  -0.0453   0.8084
     3.1204   3.1212   3.7321   4.2976   4.2977   4.4152   4.9625   5.0517

          k = 0.2813 0.2813 0.5625 (  1635 PWs)   bands (ev):

    -4.3753  -3.8980  -3.0786  -3.0776  -0.6442  -0.6441   0.2635   0.8232
     2.9590   2.9599   3.9483   4.1950   4.1951   4.4589   4.8163   4.8226

          k = 0.2625 0.2625 0.5250 (  1644 PWs)   bands (ev):

    -4.3154  -4.1198  -2.9942  -2.9933  -0.6579  -0.6578   0.6066   0.8405
     2.7891   2.7900   4.0694   4.0694   4.1660   4.5180   4.5220   4.6709

          k = 0.2438 0.2438 0.4875 (  1642 PWs)   bands (ev):

    -4.3368  -4.2372  -2.9140  -2.9131  -0.6508  -0.6508   0.8556   0.9777
     2.6194   2.6202   3.9378   3.9379   4.2048   4.3840   4.5133   4.5928

          k = 0.2250 0.2250 0.4500 (  1636 PWs)   bands (ev):

    -4.5450  -4.1409  -2.8379  -2.8370  -0.6295  -0.6295   0.8613   1.3720
     2.4592   2.4600   3.8125   3.8126   3.8904   4.3558   4.5989   4.6822

          k = 0.2063 0.2063 0.4125 (  1630 PWs)   bands (ev):

    -4.7414  -4.0264  -2.7652  -2.7643  -0.6034  -0.6033   0.8474   1.7865
     2.3209   2.3216   3.5984   3.7001   3.7002   4.2019   4.7860   4.8097

          k = 0.1875 0.1875 0.3750 (  1633 PWs)   bands (ev):

    -4.9244  -3.8941  -2.6939  -2.6930  -0.5849  -0.5848   0.8010   2.2178
     2.2185   2.2193   3.3484   3.6034   3.6036   4.0546   4.9036   5.0139

          k = 0.1688 0.1688 0.3375 (  1636 PWs)   bands (ev):

    -5.0924  -3.7440  -2.6220  -2.6211  -0.5870  -0.5867   0.7084   2.1659
     2.1665   2.6642   3.1568   3.5228   3.5230   3.9169   5.0339   5.2096

          k = 0.1500 0.1500 0.3000 (  1643 PWs)   bands (ev):

    -5.2445  -3.5765  -2.5472  -2.5463  -0.6200  -0.6196   0.5607   2.1730
     2.1734   3.0337   3.1225   3.4575   3.4577   3.7900   5.1757   5.3940

          k = 0.1313 0.1313 0.2625 (  1640 PWs)   bands (ev):

    -5.3799  -3.3919  -2.4673  -2.4665  -0.6882  -0.6877   0.3588   2.2423
     2.2427   2.9787   3.4061   3.4064   3.5894   3.6758   5.3273   5.5644

          k = 0.1125 0.1125 0.2250 (  1638 PWs)   bands (ev):

    -5.4982  -3.1906  -2.3806  -2.3798  -0.7889  -0.7884   0.1126   2.3679
     2.3682   2.9804   3.3669   3.3672   3.5751   4.0607   5.4853   5.7188

          k = 0.0938 0.0938 0.1875 (  1642 PWs)   bands (ev):

    -5.5988  -2.9731  -2.2857  -2.2849  -0.9151  -0.9145  -0.1645   2.5371
     2.5374   3.0224   3.3379   3.3382   3.4888   4.5309   5.6458   5.8537

          k = 0.0750 0.0750 0.1500 (  1642 PWs)   bands (ev):

    -5.6815  -2.7399  -2.1815  -2.1808  -1.0582  -1.0576  -0.4599   2.7328
     2.7331   3.0881   3.3173   3.3177   3.4174   4.9901   5.8017   5.9668

          k = 0.0563 0.0563 0.1125 (  1649 PWs)   bands (ev):

    -5.7461  -2.4918  -2.0677  -2.0669  -1.2106  -1.2100  -0.7640   2.9337
     2.9340   3.1610   3.3035   3.3038   3.3614   5.4222   5.9452   6.0565

          k = 0.0375 0.0375 0.0750 (  1647 PWs)   bands (ev):

    -5.7924  -2.2298  -1.9439  -1.9432  -1.3659  -1.3652  -1.0700   3.1137
     3.1141   3.2268   3.2949   3.2952   3.3212   5.7985   6.0643   6.1212

          k = 0.0188 0.0188 0.0375 (  1632 PWs)   bands (ev):

    -5.8201  -1.9549  -1.8107  -1.8100  -1.5198  -1.5191  -1.3725   3.2420
     3.2423   3.2726   3.2903   3.2906   3.2971   6.0707   6.1447   6.1602

          k = 0.0000 0.0000 0.0000 (  1647 PWs)   bands (ev):

    -5.8294  -1.6690  -1.6690  -1.6690  -1.6689  -1.6689  -1.6668   3.2886
     3.2886   3.2886   3.2893   3.2893   3.2893   6.1733   6.1733   6.1733

          k = 0.0250 0.0250 0.0250 (  1629 PWs)   bands (ev):

    -5.8212  -1.8593  -1.8593  -1.8582  -1.4713  -1.4713  -1.4702   3.2525
     3.2525   3.2531   3.2955   3.2961   3.2961   6.0741   6.1587   6.1587

          k = 0.0500 0.0500 0.0500 (  1644 PWs)   bands (ev):

    -5.7965  -2.0410  -2.0410  -2.0399  -1.2691  -1.2691  -1.2682   3.1520
     3.1520   3.1525   3.3162   3.3168   3.3168   5.8092   6.1168   6.1168

          k = 0.0750 0.0750 0.0750 (  1644 PWs)   bands (ev):

    -5.7554  -2.2129  -2.2129  -2.2118  -1.0658  -1.0658  -1.0649   3.0080
     3.0080   3.0085   3.3506   3.3511   3.3511   5.4397   6.0523   6.0523

          k = 0.1000 0.1000 0.1000 (  1650 PWs)   bands (ev):

    -5.6980  -2.3740  -2.3740  -2.3729  -0.8663  -0.8663  -0.8654   2.8450
     2.8450   2.8454   3.3984   3.3989   3.3989   5.0125   5.9712   5.9712

          k = 0.1250 0.1250 0.1250 (  1653 PWs)   bands (ev):

    -5.6245  -2.5238  -2.5238  -2.5227  -0.6773  -0.6773  -0.6765   2.6857
     2.6857   2.6862   3.4594   3.4599   3.4599   4.5539   5.8793   5.8793

          k = 0.1500 0.1500 0.1500 (  1638 PWs)   bands (ev):

    -5.5351  -2.6620  -2.6620  -2.6608  -0.5083  -0.5083  -0.5076   2.5510
     2.5510   2.5515   3.5332   3.5337   3.5337   4.0832   5.7821   5.7821

          k = 0.1750 0.1750 0.1750 (  1638 PWs)   bands (ev):

    -5.4301  -2.7883  -2.7883  -2.7872  -0.3709  -0.3709  -0.3703   2.4602
     2.4602   2.4608   3.6082   3.6191   3.6197   3.6197   5.6823   5.6823

          k = 0.2000 0.2000 0.2000 (  1638 PWs)   bands (ev):

    -5.3099  -2.9029  -2.9029  -2.9017  -0.2769  -0.2769  -0.2763   2.4303
     2.4303   2.4310   3.1353   3.7165   3.7171   3.7171   5.5849   5.5849

          k = 0.2250 0.2250 0.2250 (  1631 PWs)   bands (ev):

    -5.1750  -3.0057  -3.0057  -3.0045  -0.2334  -0.2334  -0.2331   2.4720
     2.4720   2.4727   2.6688   3.8245   3.8250   3.8250   5.4914   5.4914

          k = 0.2500 0.2500 0.2500 (  1637 PWs)   bands (ev):

    -5.0262  -3.0971  -3.0971  -3.0958  -0.2397  -0.2397  -0.2395   2.2120
     2.5861   2.5861   2.5870   3.9416   3.9422   3.9422   5.4033   5.4033

          k = 0.2750 0.2750 0.2750 (  1631 PWs)   bands (ev):

    -4.8645  -3.1772  -3.1772  -3.1759  -0.2862  -0.2862  -0.2861   1.7675
     2.7647   2.7647   2.7656   4.0665   4.0671   4.0671   5.3218   5.3218

          k = 0.3000 0.3000 0.3000 (  1622 PWs)   bands (ev):

    -4.6912  -3.2465  -3.2465  -3.2451  -0.3595  -0.3595  -0.3595   1.3389
     2.9944   2.9944   2.9954   4.1973   4.1979   4.1979   5.2477   5.2477

          k = 0.3250 0.3250 0.3250 (  1628 PWs)   bands (ev):

    -4.5083  -3.3055  -3.3055  -3.3041  -0.4470  -0.4470  -0.4470   0.9287
     3.2616   3.2616   3.2627   4.3308   4.3314   4.3314   5.1816   5.1816

          k = 0.3500 0.3500 0.3500 (  1628 PWs)   bands (ev):

    -4.3186  -3.3547  -3.3547  -3.3534  -0.5382  -0.5381  -0.5381   0.5408
     3.5546   3.5546   3.5557   4.4639   4.4645   4.4645   5.1236   5.1236

          k = 0.3750 0.3750 0.3750 (  1622 PWs)   bands (ev):

    -4.1264  -3.3949  -3.3949  -3.3935  -0.6253  -0.6251  -0.6251   0.1799
     3.8612   3.8612   3.8623   4.5924   4.5930   4.5930   5.0745   5.0745

          k = 0.4000 0.4000 0.4000 (  1634 PWs)   bands (ev):

    -3.9380  -3.4266  -3.4266  -3.4252  -0.7028  -0.7026  -0.7026  -0.1471
     4.1687   4.1687   4.1699   4.7109   4.7115   4.7115   5.0336   5.0336

          k = 0.4250 0.4250 0.4250 (  1640 PWs)   bands (ev):

    -3.7632  -3.4505  -3.4505  -3.4490  -0.7667  -0.7665  -0.7665  -0.4300
     4.4613   4.4613   4.4625   4.8133   4.8139   4.8139   5.0022   5.0022

          k = 0.4500 0.4500 0.4500 (  1625 PWs)   bands (ev):

    -3.6162  -3.4671  -3.4671  -3.4656  -0.8142  -0.8139  -0.8139  -0.6543
     4.7151   4.7151   4.7164   4.8932   4.8938   4.8938   4.9796   4.9796

          k = 0.4750 0.4750 0.4750 (  1637 PWs)   bands (ev):

    -3.5158  -3.4769  -3.4769  -3.4754  -0.8434  -0.8431  -0.8431  -0.8014
     4.8949   4.8949   4.8962   4.9437   4.9443   4.9443   4.9662   4.9662

          k = 0.5000 0.5000 0.5000 (  1640 PWs)   bands (ev):

    -3.4801  -3.4801  -3.4801  -3.4782  -0.8533  -0.8529  -0.8529  -0.8529
     4.9609   4.9609   4.9613   4.9613   4.9613   4.9625   4.9625   4.9625

          k = 0.5063 0.4875 0.5063 (  1640 PWs)   bands (ev):

    -3.4837  -3.4803  -3.4797  -3.4781  -0.8525  -0.8512  -0.8510  -0.8471
     4.9513   4.9538   4.9545   4.9595   4.9596   4.9598   4.9611   4.9626

          k = 0.5125 0.4750 0.5125 (  1640 PWs)   bands (ev):

    -3.4954  -3.4810  -3.4801  -3.4754  -0.8507  -0.8455  -0.8453  -0.8296
     4.9211   4.9316   4.9321   4.9538   4.9544   4.9550   4.9572   4.9649

          k = 0.5188 0.4625 0.5188 (  1636 PWs)   bands (ev):

    -3.5147  -3.4821  -3.4811  -3.4703  -0.8479  -0.8361  -0.8359  -0.8008
     4.8723   4.8955   4.8960   4.9441   4.9460   4.9467   4.9513   4.9689

          k = 0.5250 0.4500 0.5250 (  1627 PWs)   bands (ev):

    -3.5411  -3.4835  -3.4826  -3.4631  -0.8440  -0.8229  -0.8227  -0.7611
     4.8072   4.8469   4.8473   4.9312   4.9342   4.9350   4.9432   4.9746

          k = 0.5313 0.4375 0.5313 (  1625 PWs)   bands (ev):

    -3.5738  -3.4854  -3.4844  -3.4539  -0.8390  -0.8061  -0.8060  -0.7113
     4.7274   4.7869   4.7874   4.9142   4.9190   4.9198   4.9331   4.9820

          k = 0.5375 0.4250 0.5375 (  1625 PWs)   bands (ev):

    -3.6122  -3.4875  -3.4865  -3.4426  -0.8329  -0.7858  -0.7856  -0.6520
     4.6356   4.7176   4.7180   4.8939   4.9006   4.9014   4.9208   4.9908

          k = 0.5438 0.4125 0.5438 (  1621 PWs)   bands (ev):

    -3.6555  -3.4898  -3.4889  -3.4293  -0.8258  -0.7620  -0.7618  -0.5841
     4.5340   4.6404   4.6408   4.8705   4.8793   4.8801   4.9067   5.0016

          k = 0.5500 0.4000 0.5500 (  1625 PWs)   bands (ev):

    -3.7031  -3.4923  -3.4914  -3.4139  -0.8178  -0.7349  -0.7347  -0.5082
     4.4245   4.5567   4.5571   4.8441   4.8547   4.8555   4.8907   5.0136

          k = 0.5563 0.3875 0.5563 (  1633 PWs)   bands (ev):

    -3.7541  -3.4949  -3.4940  -3.3965  -0.8089  -0.7045  -0.7044  -0.4250
     4.3088   4.4680   4.4684   4.8150   4.8273   4.8281   4.8730   5.0271

          k = 0.5625 0.3750 0.5625 (  1629 PWs)   bands (ev):

    -3.8080  -3.4975  -3.4966  -3.3770  -0.7991  -0.6711  -0.6710  -0.3353
     4.1884   4.3756   4.3759   4.7836   4.7972   4.7980   4.8539   5.0422

          k = 0.5688 0.3625 0.5688 (  1633 PWs)   bands (ev):

    -3.8641  -3.5001  -3.4991  -3.3556  -0.7887  -0.6349  -0.6347  -0.2396
[...]

          k = 0.5000 0.2500 0.7500 (  1622 PWs)   bands (ev):

    -4.2658  -4.2648  -2.9403  -2.9393  -0.6551  -0.6551   0.8511   0.8517
     2.6754   2.6763   3.9815   3.9815   4.3116   4.3119   4.5659   4.5670

          k = 0.5000 0.2625 0.7375 (  1650 PWs)   bands (ev):

    -4.2202  -4.2192  -2.9921  -2.9911  -0.6632  -0.6632   0.7215   0.7221
     2.7915   2.7924   4.0681   4.0682   4.3461   4.3463   4.5927   4.5938

          k = 0.5000 0.2750 0.7250 (  1650 PWs)   bands (ev):

    -4.1731  -4.1721  -3.0414  -3.0404  -0.6735  -0.6734   0.5937   0.5943
     2.9134   2.9143   4.1524   4.1524   4.3832   4.3834   4.6202   4.6213

          k = 0.5000 0.2875 0.7125 (  1638 PWs)   bands (ev):

    -4.1248  -4.1238  -3.0882  -3.0872  -0.6853  -0.6852   0.4679   0.4685
     3.0409   3.0418   4.2339   4.2340   4.4220   4.4221   4.6480   4.6491

          k = 0.5000 0.3000 0.7000 (  1642 PWs)   bands (ev):

    -4.0756  -4.0745  -3.1324  -3.1315  -0.6985  -0.6984   0.3445   0.3451
     3.1723   3.1733   4.3123   4.3124   4.4622   4.4624   4.6758   4.6769

          k = 0.5000 0.3125 0.6875 (  1642 PWs)   bands (ev):

    -4.0255  -4.0244  -3.1742  -3.1732  -0.7124  -0.7123   0.2240   0.2246
     3.3075   3.3085   4.3873   4.3873   4.5035   4.5037   4.7034   4.7046

          k = 0.5000 0.3250 0.6750 (  1634 PWs)   bands (ev):

    -3.9749  -3.9739  -3.2133  -3.2123  -0.7267  -0.7266   0.1068   0.1074
     3.4457   3.4467   4.4586   4.4587   4.5457   4.5458   4.7308   4.7319

          k = 0.5000 0.3375 0.6625 (  1626 PWs)   bands (ev):

    -3.9241  -3.9231  -3.2498  -3.2488  -0.7412  -0.7410  -0.0066  -0.0060
     3.5863   3.5874   4.5262   4.5263   4.5882   4.5884   4.7576   4.7587

          k = 0.5000 0.3500 0.6500 (  1630 PWs)   bands (ev):

    -3.8735  -3.8725  -3.2836  -3.2827  -0.7555  -0.7553  -0.1156  -0.1150
     3.7282   3.7292   4.5892   4.5893   4.6309   4.6310   4.7836   4.7847

          k = 0.5000 0.3625 0.6375 (  1632 PWs)   bands (ev):

    -3.8235  -3.8225  -3.3149  -3.3139  -0.7694  -0.7692  -0.2197  -0.2192
     3.8705   3.8715   4.6478   4.6478   4.6730   4.6732   4.8087   4.8098

          k = 0.5000 0.3750 0.6250 (  1636 PWs)   bands (ev):

    -3.7745  -3.7735  -3.3434  -3.3425  -0.7827  -0.7825  -0.3184  -0.3179
     4.0122   4.0132   4.7016   4.7017   4.7145   4.7147   4.8326   4.8337

          k = 0.5000 0.3875 0.6125 (  1632 PWs)   bands (ev):

    -3.7271  -3.7261  -3.3693  -3.3684  -0.7952  -0.7950  -0.4111  -0.4106
     4.1521   4.1532   4.7508   4.7508   4.7546   4.7549   4.8551   4.8562

          k = 0.5000 0.4000 0.6000 (  1626 PWs)   bands (ev):

    -3.6818  -3.6808  -3.3925  -3.3915  -0.8067  -0.8065  -0.4970  -0.4965
     4.2887   4.2898   4.7928   4.7929   4.7949   4.7953   4.8760   4.8771

          k = 0.5000 0.4125 0.5875 (  1630 PWs)   bands (ev):

    -3.6393  -3.6383  -3.4130  -3.4120  -0.8172  -0.8170  -0.5754  -0.5750
     4.4202   4.4213   4.8287   4.8287   4.8340   4.8342   4.8947   4.8959

          k = 0.5000 0.4250 0.5750 (  1622 PWs)   bands (ev):

    -3.6004  -3.5994  -3.4308  -3.4298  -0.8265  -0.8263  -0.6456  -0.6452
     4.5444   4.5455   4.8615   4.8615   4.8679   4.8681   4.9117   4.9129

          k = 0.5000 0.4375 0.5625 (  1622 PWs)   bands (ev):

    -3.5657  -3.5647  -3.4458  -3.4449  -0.8344  -0.8342  -0.7069  -0.7065
     4.6586   4.6598   4.8906   4.8906   4.8965   4.8967   4.9264   4.9276

          k = 0.5000 0.4500 0.5500 (  1626 PWs)   bands (ev):

    -3.5361  -3.5351  -3.4582  -3.4572  -0.8411  -0.8409  -0.7583  -0.7580
     4.7594   4.7606   4.9154   4.9154   4.9200   4.9203   4.9387   4.9399

          k = 0.5000 0.4625 0.5375 (  1634 PWs)   bands (ev):

    -3.5121  -3.5112  -3.4677  -3.4668  -0.8463  -0.8461  -0.7992  -0.7989
     4.8436   4.8447   4.9350   4.9351   4.9383   4.9386   4.9483   4.9495

          k = 0.5000 0.4750 0.5250 (  1640 PWs)   bands (ev):

    -3.4945  -3.4936  -3.4746  -3.4736  -0.8501  -0.8499  -0.8290  -0.8287
     4.9075   4.9086   4.9494   4.9496   4.9510   4.9516   4.9554   4.9566

          k = 0.5000 0.4875 0.5125 (  1640 PWs)   bands (ev):

    -3.4837  -3.4829  -3.4787  -3.4776  -0.8524  -0.8522  -0.8470  -0.8468
     4.9474   4.9486   4.9581   4.9586   4.9588   4.9597   4.9598   4.9610

          k = 0.5000 0.5000 0.5000 (  1640 PWs)   bands (ev):

    -3.4801  -3.4801  -3.4801  -3.4782  -0.8533  -0.8529  -0.8529  -0.8529
     4.9609   4.9609   4.9613   4.9613   4.9613   4.9625   4.9625   4.9625

          k = 0.4938 0.4938 0.5125 (  1640 PWs)   bands (ev):

    -3.4837  -3.4803  -3.4797  -3.4781  -0.8525  -0.8512  -0.8510  -0.8471
     4.9513   4.9538   4.9545   4.9595   4.9596   4.9598   4.9611   4.9626

          k = 0.4875 0.4875 0.5250 (  1640 PWs)   bands (ev):

    -3.4954  -3.4810  -3.4801  -3.4754  -0.8507  -0.8455  -0.8453  -0.8296
     4.9211   4.9316   4.9321   4.9538   4.9544   4.9550   4.9572   4.9649

          k = 0.4813 0.4813 0.5375 (  1636 PWs)   bands (ev):

    -3.5147  -3.4821  -3.4811  -3.4703  -0.8479  -0.8361  -0.8359  -0.8008
     4.8723   4.8955   4.8960   4.9441   4.9460   4.9467   4.9513   4.9689

          k = 0.4750 0.4750 0.5500 (  1627 PWs)   bands (ev):

    -3.5411  -3.4835  -3.4826  -3.4631  -0.8440  -0.8229  -0.8227  -0.7611
     4.8072   4.8469   4.8473   4.9312   4.9342   4.9350   4.9432   4.9746

          k = 0.4688 0.4688 0.5625 (  1625 PWs)   bands (ev):

    -3.5738  -3.4854  -3.4844  -3.4539  -0.8390  -0.8061  -0.8060  -0.7113
     4.7274   4.7869   4.7874   4.9142   4.9190   4.9198   4.9331   4.9820

          k = 0.4625 0.4625 0.5750 (  1625 PWs)   bands (ev):

    -3.6122  -3.4875  -3.4865  -3.4426  -0.8329  -0.7858  -0.7856  -0.6520
     4.6356   4.7176   4.7180   4.8939   4.9006   4.9014   4.9208   4.9908

          k = 0.4563 0.4563 0.5875 (  1621 PWs)   bands (ev):

    -3.6555  -3.4898  -3.4889  -3.4293  -0.8258  -0.7620  -0.7618  -0.5841
     4.5340   4.6404   4.6408   4.8705   4.8793   4.8801   4.9067   5.0016

          k = 0.4500 0.4500 0.6000 (  1625 PWs)   bands (ev):

    -3.7031  -3.4923  -3.4914  -3.4139  -0.8178  -0.7349  -0.7347  -0.5082
     4.4245   4.5567   4.5571   4.8441   4.8547   4.8555   4.8907   5.0136

          k = 0.4438 0.4438 0.6125 (  1633 PWs)   bands (ev):

    -3.7541  -3.4949  -3.4940  -3.3965  -0.8089  -0.7045  -0.7044  -0.4250
     4.3088   4.4680   4.4684   4.8150   4.8273   4.8281   4.8730   5.0271

          k = 0.4375 0.4375 0.6250 (  1629 PWs)   bands (ev):

    -3.8080  -3.4975  -3.4966  -3.3770  -0.7991  -0.6711  -0.6710  -0.3353
     4.1884   4.3756   4.3759   4.7836   4.7972   4.7980   4.8539   5.0422

          k = 0.4313 0.4313 0.6375 (  1633 PWs)   bands (ev):

    -3.8641  -3.5001  -3.4991  -3.3556  -0.7887  -0.6349  -0.6347  -0.2396
     4.0644   4.2801   4.2805   4.7500   4.7643   4.7651   4.8334   5.0587

          k = 0.4250 0.4250 0.6500 (  1633 PWs)   bands (ev):

    -3.9219  -3.5024  -3.5015  -3.3321  -0.7775  -0.5959  -0.5958  -0.1385
     3.9380   4.1827   4.1831   4.7146   4.7290   4.7298   4.8119   5.0768

          k = 0.4188 0.4188 0.6625 (  1637 PWs)   bands (ev):

    -3.9810  -3.5045  -3.5036  -3.3066  -0.7658  -0.5544  -0.5543  -0.0325
     3.8100   4.0841   4.0844   4.6777   4.6912   4.6920   4.7891   5.0963

          k = 0.4125 0.4125 0.6750 (  1633 PWs)   bands (ev):

    -4.0409  -3.5063  -3.5054  -3.2791  -0.7538  -0.5106  -0.5105   0.0780
     3.6810   3.9850   3.9854   4.6393   4.6513   4.6521   4.7655   5.1172

          k = 0.4063 0.4063 0.6875 (  1630 PWs)   bands (ev):

    -4.1013  -3.5076  -3.5067  -3.2497  -0.7414  -0.4647  -0.4647   0.1926
     3.5519   3.8861   3.8864   4.5999   4.6093   4.6102   4.7412   5.1396

          k = 0.4000 0.4000 0.7000 (  1632 PWs)   bands (ev):

    -4.1619  -3.5084  -3.5076  -3.2183  -0.7291  -0.4170  -0.4170   0.3109
     3.4227   3.7878   3.7881   4.5596   4.5654   4.5663   4.7162   5.1632

          k = 0.3938 0.3938 0.7125 (  1630 PWs)   bands (ev):

    -4.2224  -3.5087  -3.5078  -3.1849  -0.7167  -0.3678  -0.3677   0.4327
     3.2951   3.6906   3.6909   4.5186   4.5197   4.5205   4.6909   5.1882

          k = 0.3875 0.3875 0.7250 (  1631 PWs)   bands (ev):

    -4.2826  -3.5082  -3.5074  -3.1496  -0.7048  -0.3172  -0.3172   0.5576
     3.1689   3.5951   3.5954   4.4724   4.4732   4.4773   4.6653   5.2143

          k = 0.3813 0.3813 0.7375 (  1637 PWs)   bands (ev):

    -4.3422  -3.5071  -3.5062  -3.1124  -0.6933  -0.2658  -0.2657   0.6854
     3.0447   3.5014   3.5017   4.4234   4.4242   4.4357   4.6396   5.2417

          k = 0.3750 0.3750 0.7500 (  1638 PWs)   bands (ev):

    -4.4012  -3.5051  -3.5042  -3.0734  -0.6828  -0.2137  -0.2137   0.8158
     2.9232   3.4104   3.4107   4.3732   4.3741   4.3939   4.6140   5.2702

          k = 0.3875 0.3688 0.7438 (  1634 PWs)   bands (ev):

    -4.3710  -3.5618  -3.4506  -3.0924  -0.6877  -0.2993  -0.1768   0.7505
     2.9825   3.3911   3.5213   4.3762   4.4110   4.4200   4.6260   5.2492

          k = 0.4000 0.3625 0.7375 (  1633 PWs)   bands (ev):

    -4.3392  -3.6180  -3.3994  -3.1094  -0.6924  -0.3790  -0.1384   0.6865
     3.0397   3.3737   3.6337   4.3785   4.4208   4.4633   4.6361   5.2149

          k = 0.4125 0.3563 0.7313 (  1634 PWs)   bands (ev):

    -4.3056  -3.6732  -3.3515  -3.1244  -0.6967  -0.4519  -0.0986   0.6237
     3.0940   3.3583   3.7470   4.3806   4.4244   4.5028   4.6438   5.1680

          k = 0.4250 0.3500 0.7250 (  1632 PWs)   bands (ev):

    -4.2703  -3.7272  -3.3078  -3.1375  -0.7007  -0.5174  -0.0572   0.5622
     3.1445   3.3451   3.8607   4.3824   4.4227   4.5388   4.6491   5.1099

          k = 0.4375 0.3438 0.7188 (  1636 PWs)   bands (ev):

    -4.2334  -3.7801  -3.2691  -3.1485  -0.7041  -0.5747  -0.0143   0.5022
     3.1903   3.3338   3.9744   4.3839   4.4173   4.5714   4.6511   5.0420

          k = 0.4500 0.3375 0.7125 (  1637 PWs)   bands (ev):

    -4.1949  -3.8317  -3.2360  -3.1576  -0.7070  -0.6230   0.0302   0.4436
     3.2303   3.3245   4.0875   4.3851   4.4097   4.6006   4.6487   4.9666

          k = 0.4625 0.3313 0.7063 (  1637 PWs)   bands (ev):

    -4.1547  -3.8821  -3.2093  -3.1646  -0.7093  -0.6615   0.0763   0.3864
     3.2633   3.3173   4.1990   4.3861   4.4013   4.6269   4.6398   4.8871

          k = 0.4750 0.3250 0.7000 (  1635 PWs)   bands (ev):

    -4.1130  -3.9311  -3.1897  -3.1696  -0.7110  -0.6895   0.1240   0.3308
     3.2877   3.3122   4.3076   4.3868   4.3940   4.6191   4.6514   4.8099

          k = 0.4875 0.3188 0.6938 (  1637 PWs)   bands (ev):

    -4.0697  -3.9787  -3.1778  -3.1726  -0.7120  -0.7066   0.1733   0.2767
     3.3028   3.3091   4.3872   4.3891   4.4108   4.5758   4.6755   4.7462

          k = 0.5000 0.3125 0.6875 (  1642 PWs)   bands (ev):

    -4.0255  -4.0244  -3.1742  -3.1732  -0.7124  -0.7123   0.2240   0.2246
     3.3075   3.3085   4.3873   4.3873   4.5035   4.5037   4.7034   4.7046

          k = 0.5125 0.3063 0.6813 (  1637 PWs)   bands (ev):

    -4.0697  -3.9787  -3.1778  -3.1726  -0.7120  -0.7066   0.1733   0.2767
     3.3028   3.3091   4.3872   4.3891   4.4108   4.5758   4.6755   4.7462

          k = 0.5250 0.3000 0.6750 (  1635 PWs)   bands (ev):

    -4.1130  -3.9311  -3.1897  -3.1696  -0.7110  -0.6895   0.1240   0.3308
     3.2877   3.3122   4.3076   4.3868   4.3940   4.6191   4.6514   4.8099

          k = 0.5375 0.2938 0.6688 (  1637 PWs)   bands (ev):

    -4.1547  -3.8821  -3.2093  -3.1646  -0.7093  -0.6615   0.0763   0.3864
     3.2633   3.3173   4.1990   4.3861   4.4013   4.6269   4.6398   4.8871

          k = 0.5500 0.2875 0.6625 (  1637 PWs)   bands (ev):

    -4.1949  -3.8317  -3.2360  -3.1576  -0.7070  -0.6230   0.0302   0.4436
     3.2303   3.3245   4.0875   4.3851   4.4097   4.6006   4.6487   4.9666

          k = 0.5625 0.2813 0.6563 (  1636 PWs)   bands (ev):

    -4.2334  -3.7801  -3.2691  -3.1485  -0.7041  -0.5747  -0.0143   0.5022
     3.1903   3.3338   3.9744   4.3839   4.4173   4.5714   4.6511   5.0420

          k = 0.5750 0.2750 0.6500 (  1632 PWs)   bands (ev):

    -4.2703  -3.7272  -3.3078  -3.1375  -0.7007  -0.5174  -0.0572   0.5622
     3.1445   3.3451   3.8607   4.3824   4.4227   4.5388   4.6491   5.1099

          k = 0.5875 0.2688 0.6438 (  1634 PWs)   bands (ev):

    -4.3056  -3.6732  -3.3515  -3.1244  -0.6967  -0.4519  -0.0986   0.6237
     3.0940   3.3583   3.7470   4.3806   4.4244   4.5028   4.6438   5.1680

          k = 0.6000 0.2625 0.6375 (  1633 PWs)   bands (ev):

    -4.3392  -3.6180  -3.3994  -3.1094  -0.6924  -0.3790  -0.1384   0.6865
     3.0397   3.3737   3.6337   4.3785   4.4208   4.4633   4.6361   5.2149

          k = 0.6125 0.2563 0.6313 (  1634 PWs)   bands (ev):

    -4.3710  -3.5618  -3.4506  -3.0924  -0.6877  -0.2993  -0.1768   0.7505
     2.9825   3.3911   3.5213   4.3762   4.4110   4.4200   4.6260   5.2492

          k = 0.6250 0.2500 0.6250 (  1638 PWs)   bands (ev):

    -4.4012  -3.5051  -3.5042  -3.0734  -0.6828  -0.2137  -0.2137   0.8158
     2.9232   3.4104   3.4107   4.3732   4.3741   4.3939   4.6140   5.2702

          k = 0.6188 0.2375 0.6188 (  1634 PWs)   bands (ev):

    -4.3869  -3.5297  -3.5289  -3.0656  -0.6714  -0.1659  -0.1659   0.8217
     2.8630   3.3795   3.3797   4.3855   4.3864   4.4030   4.4913   5.2715

          k = 0.6125 0.2250 0.6125 (  1630 PWs)   bands (ev):

    -4.3707  -3.5535  -3.5526  -3.0661  -0.6486  -0.1163  -0.1163   0.8281
     2.8043   3.3386   3.3388   4.3633   4.4032   4.4041   4.4135   5.2689

          k = 0.6063 0.2125 0.6063 (  1637 PWs)   bands (ev):

    -4.3526  -3.5763  -3.5754  -3.0745  -0.6150  -0.0651  -0.0651   0.8349
     2.7473   3.2888   3.2889   4.2315   4.4254   4.4257   4.4264   5.2626

          k = 0.6000 0.2000 0.6000 (  1639 PWs)   bands (ev):

    -4.3325  -3.5980  -3.5972  -3.0903  -0.5712  -0.0126  -0.0126   0.8421
     2.6923   3.2315   3.2316   4.0971   4.4393   4.4517   4.4527   5.2528

          k = 0.5938 0.1875 0.5938 (  1626 PWs)   bands (ev):

    -4.3105  -3.6187  -3.6179  -3.1126  -0.5181   0.0412   0.0413   0.8497
     2.6393   3.1686   3.1687   3.9614   4.4544   4.4810   4.4820   5.2400

          k = 0.5875 0.1750 0.5875 (  1622 PWs)   bands (ev):

    -4.2867  -3.6382  -3.6374  -3.1408  -0.4566   0.0960   0.0961   0.8569
     2.5886   3.1013   3.1013   3.8249   4.4711   4.5126   4.5136   5.2240

          k = 0.5813 0.1625 0.5813 (  1628 PWs)   bands (ev):

    -4.2610  -3.6566  -3.6558  -3.1740  -0.3880   0.1514   0.1514   0.8638
     2.5404   3.0309   3.0309   3.6883   4.4890   4.5453   4.5464   5.2052

          k = 0.5750 0.1500 0.5750 (  1636 PWs)   bands (ev):

    -4.2335  -3.6738  -3.6730  -3.2113  -0.3131   0.2070   0.2070   0.8701
     2.4950   2.9584   2.9585   3.5532   4.5084   4.5786   4.5796   5.1839

          k = 0.5688 0.1375 0.5688 (  1638 PWs)   bands (ev):

    -4.2042  -3.6898  -3.6890  -3.2521  -0.2331   0.2625   0.2626   0.8753
     2.4527   2.8855   2.8856   3.4199   4.5292   4.6118   4.6128   5.1606

          k = 0.5625 0.1250 0.5625 (  1632 PWs)   bands (ev):

    -4.1731  -3.7044  -3.7036  -3.2955  -0.1488   0.3176   0.3177   0.8790
     2.4140   2.8131   2.8131   3.2896   4.5513   4.6443   4.6453   5.1352

          k = 0.5563 0.1125 0.5563 (  1636 PWs)   bands (ev):

    -4.1402  -3.7178  -3.7170  -3.3411  -0.0618   0.3715   0.3716   0.8806
     2.3790   2.7421   2.7421   3.1630   4.5746   4.6755   4.6766   5.1082

          k = 0.5500 0.1000 0.5500 (  1638 PWs)   bands (ev):

    -4.1057  -3.7298  -3.7290  -3.3882   0.0273   0.4237   0.4238   0.8795
     2.3486   2.6737   2.6738   3.0409   4.5992   4.7049   4.7059   5.0801

          k = 0.5438 0.0875 0.5438 (  1636 PWs)   bands (ev):

    -4.0695  -3.7405  -3.7397  -3.4364   0.1172   0.4733   0.4734   0.8748
     2.3233   2.6091   2.6091   2.9246   4.6250   4.7320   4.7331   5.0505

          k = 0.5375 0.0750 0.5375 (  1636 PWs)   bands (ev):

    -4.0318  -3.7498  -3.7490  -3.4852   0.2069   0.5195   0.5197   0.8657
     2.3038   2.5493   2.5494   2.8150   4.6518   4.7565   4.7576   5.0199

          k = 0.5313 0.0625 0.5313 (  1634 PWs)   bands (ev):

    -3.9925  -3.7577  -3.7569  -3.5343   0.2950   0.5614   0.5616   0.8514
     2.2909   2.4957   2.4958   2.7133   4.6795   4.7782   4.7793   4.9888

          k = 0.5250 0.0500 0.5250 (  1636 PWs)   bands (ev):

    -3.9517  -3.7641  -3.7634  -3.5835   0.3803   0.5979   0.5980   0.8306
     2.2856   2.4493   2.4495   2.6207   4.7081   4.7962   4.7972   4.9572

          k = 0.5188 0.0375 0.5188 (  1636 PWs)   bands (ev):

    -3.9095  -3.7692  -3.7684  -3.6323   0.4616   0.6277   0.6279   0.8026
     2.2889   2.4116   2.4118   2.5384   4.7375   4.8105   4.8115   4.9254

          k = 0.5125 0.0250 0.5125 (  1636 PWs)   bands (ev):

    -3.8659  -3.7728  -3.7720  -3.6807   0.5375   0.6500   0.6502   0.7665
     2.3019   2.3837   2.3838   2.4672   4.7677   4.8209   4.8219   4.8935

          k = 0.5063 0.0125 0.5063 (  1633 PWs)   bands (ev):

    -3.8212  -3.7750  -3.7742  -3.7284   0.6069   0.6638   0.6639   0.7218
     2.3256   2.3665   2.3666   2.4079   4.7987   4.8272   4.8283   4.8616

          k = 0.5000 0.0000 0.5000 (  1628 PWs)   bands (ev):

    -3.7759  -3.7757  -3.7757  -3.7739   0.6684   0.6684   0.6685   0.6687
     2.3603   2.3608   2.3608   2.3611   4.8292   4.8297   4.8305   4.8305

     Writing output data file /home/ponet/.julia/environments/DFControlDEV/outputs/Si.save/

     init_run     :      0.13s CPU      0.13s WALL (       1 calls)
     electrons    :     10.67s CPU     10.76s WALL (       1 calls)

     Called by init_run:
     wfcinit      :      0.00s CPU      0.00s WALL (       1 calls)
     wfcinit:atom :      0.01s CPU      0.02s WALL (      56 calls)
     wfcinit:wfcr :      0.68s CPU      0.69s WALL (      56 calls)
     potinit      :      0.05s CPU      0.05s WALL (       1 calls)
     hinit0       :      0.06s CPU      0.06s WALL (       1 calls)

     Called by electrons:
     c_bands      :     10.67s CPU     10.75s WALL (       1 calls)
     v_of_rho     :      0.01s CPU      0.01s WALL (       1 calls)
     v_h          :      0.00s CPU      0.00s WALL (       1 calls)
     v_xc         :      0.01s CPU      0.01s WALL (       1 calls)
     newd         :      0.00s CPU      0.00s WALL (       1 calls)
     PAW_pot      :      0.04s CPU      0.04s WALL (       1 calls)

     Called by c_bands:
     init_us_2    :      0.02s CPU      0.02s WALL (      56 calls)
     cegterg      :      9.07s CPU      9.13s WALL (     112 calls)

     Called by sum_band:

     Called by *egterg:
     cdiaghg      :      0.32s CPU      0.33s WALL (    1533 calls)
     cegterg:over :      0.39s CPU      0.39s WALL (    1477 calls)
     cegterg:upda :      0.21s CPU      0.21s WALL (    1477 calls)
     cegterg:last :      0.53s CPU      0.53s WALL (    1272 calls)
     h_psi        :      7.65s CPU      7.71s WALL (    1645 calls)
     s_psi        :      0.40s CPU      0.41s WALL (    1645 calls)
     g_psi        :      0.09s CPU      0.09s WALL (    1477 calls)

     Called by h_psi:
     h_psi:calbec :      0.46s CPU      0.47s WALL (    1645 calls)
     vloc_psi     :      6.72s CPU      6.77s WALL (    1645 calls)
     add_vuspsi   :      0.42s CPU      0.43s WALL (    1645 calls)

     General routines
     calbec       :      0.46s CPU      0.46s WALL (    1645 calls)
     fft          :      0.00s CPU      0.01s WALL (      12 calls)
     fftw         :      5.90s CPU      5.95s WALL (   45210 calls)
     davcio       :      0.01s CPU      0.01s WALL (     112 calls)

     Parallel routines

     PAW routines
     PAW_pot      :      0.04s CPU      0.04s WALL (       1 calls)

     PWSCF        :     10.91s CPU     11.05s WALL


   This run was terminated on:   0:13:47  16Jun2021            

=------------------------------------------------------------------------------=
   JOB DONE.
=------------------------------------------------------------------------------=
