
     Program PWSCF v.6.7GPU starts on 16Jun2021 at  0:13:19 

     This program is part of the open-source Quantum ESPRESSO suite
     for quantum simulation of materials; please cite
         "P. Giannozzi et al., J. Phys.:Condens. Matter 21 395502 (2009);
         "P. Giannozzi et al., J. Phys.:Condens. Matter 29 465901 (2017);
         "P. Giannozzi et al., J. Chem. Phys. 152 154105 (2020);
          URL http://www.quantum-espresso.org", 
     in publications or presentations arising from this work. More details at
     http://www.quantum-espresso.org/quote

     Parallel version (MPI), running on     4 processors

     MPI processes distributed on     1 nodes
     K-points division:     npool     =       4
     Waiting for input...
     Reading input from standard input

     Current dimensions of program PWSCF are:
     Max number of different atomic species (ntypx) = 10
     Max number of k-points (npk) =  40000
     Max angular momentum in pseudopotentials (lmaxx) =  3
     file Si.pbesol-n-kjpaw_psl.0.1.UPF: wavefunction(s)  3S renormalized
     Found symmetry operation: I + (  0.0000 -0.5000 -0.5000)
     This is a supercell, fractional translations are disabled
     Message from routine setup:
     using ibrav=0 with symmetry is DISCOURAGED, use correct ibrav instead

     Subspace diagonalization in iterative solution of the eigenvalue problem:
     a serial algorithm will be used


     G-vector sticks info
     --------------------
     sticks:   dense  smooth     PW     G-vecs:    dense   smooth      PW
     Sum         673     673    197                13133    13133    2109

     Using Slab Decomposition



     bravais-lattice index     =            0
     lattice parameter (alat)  =      10.2630  a.u.
     unit-cell volume          =    1080.9899 (a.u.)^3
     number of atoms/cell      =            8
     number of atomic types    =            1
     number of electrons       =        32.00
     number of Kohn-Sham states=           16
     kinetic-energy cutoff     =      20.0000  Ry
     charge density cutoff     =      80.0000  Ry
     scf convergence threshold =      1.0E-06
     mixing beta               =       0.7000
     number of iterations used =            8  plain     mixing
     Exchange-correlation= SLA  PW   PSX  PSC
                           (   1   4  10   8   0   0   0)

     celldm(1)=  10.262989  celldm(2)=   0.000000  celldm(3)=   0.000000
     celldm(4)=   0.000000  celldm(5)=   0.000000  celldm(6)=   0.000000

     crystal axes: (cart. coord. in units of alat)
               a(1) = (   1.000000   0.000000   0.000000 )  
               a(2) = (   0.000000   1.000000   0.000000 )  
               a(3) = (   0.000000   0.000000   1.000000 )  

     reciprocal axes: (cart. coord. in units 2 pi/alat)
               b(1) = (  1.000000  0.000000  0.000000 )  
               b(2) = (  0.000000  1.000000  0.000000 )  
               b(3) = (  0.000000  0.000000  1.000000 )  


     PseudoPot. # 1 for Si read from file:
     /home/ponet/Documents/pseudos/pslibrary_pbesol/PSEUDOPOTENTIALS/Si.pbesol-n-kjpaw_psl.0.1.UPF
     MD5 check sum: e112a9414d22b310a654c074e8da067c
     Pseudo is Projector augmented-wave + core cor, Zval =  4.0
     Generated using "atomic" code by A. Dal Corso  v.5.0.99 svn rev. 10869
     Shape of augmentation charge: PSQ
     Using radial grid of 1141 points,  4 beta functions with: 
                l(1) =   0
                l(2) =   0
                l(3) =   1
                l(4) =   1
     Q(r) pseudized with 0 coefficients 


     atomic species   valence    mass     pseudopotential
        Si             4.00    28.08550     Si( 1.00)

     24 Sym. Ops. (no inversion) found



   Cartesian axes

     site n.     atom                  positions (alat units)
         1           Si  tau(   1) = (   0.0000000   0.0000000   0.0000000  )
         2           Si  tau(   2) = (   0.0000000   0.5000000   0.5000000  )
         3           Si  tau(   3) = (   0.2500000   0.2500000   0.2500000  )
         4           Si  tau(   4) = (   0.5000000   0.0000000   0.5000000  )
         5           Si  tau(   5) = (   0.2500000   0.7500000   0.7500000  )
         6           Si  tau(   6) = (   0.7500000   0.7500000   0.2500000  )
         7           Si  tau(   7) = (   0.7500000   0.2500000   0.7500000  )
         8           Si  tau(   8) = (   0.5000000   0.5000000   0.0000000  )

     number of k points=    10
                       cart. coord. in units 2pi/alat
        k(    1) = (   0.0833333   0.0833333   0.0833333), wk =   0.0740741
        k(    2) = (   0.0833333   0.0833333   0.2500000), wk =   0.2222222
        k(    3) = (   0.0833333   0.0833333   0.4166667), wk =   0.2222222
        k(    4) = (   0.0833333   0.2500000   0.2500000), wk =   0.2222222
        k(    5) = (   0.0833333   0.2500000   0.4166667), wk =   0.4444444
        k(    6) = (   0.0833333   0.4166667   0.4166667), wk =   0.2222222
        k(    7) = (   0.2500000   0.2500000   0.2500000), wk =   0.0740741
        k(    8) = (   0.2500000   0.2500000   0.4166667), wk =   0.2222222
        k(    9) = (   0.2500000   0.4166667   0.4166667), wk =   0.2222222
        k(   10) = (   0.4166667   0.4166667   0.4166667), wk =   0.0740741

     Dense  grid:    13133 G-vectors     FFT dimensions: (  30,  30,  30)

     Estimated max dynamical RAM per process >      13.41 MB

     Estimated total dynamical RAM >      44.04 MB

     Check: negative core charge=   -0.000010

     Initial potential from superposition of free atoms

     starting charge   31.99568, renormalised to   32.00000
     Starting wfcs are   32 randomized atomic wfcs
     Checking if some PAW data can be deallocated... 

     total cpu time spent up to now is        0.3 secs

     Self-consistent Calculation

     iteration #  1     ecut=    20.00 Ry     beta= 0.70
     Davidson diagonalization with overlap
     ethr =  1.00E-02,  avg # of iterations =  2.0

     Threshold (ethr) on eigenvalues was too large:
     Diagonalizing with lowered threshold

     Davidson diagonalization with overlap
     ethr =  4.94E-04,  avg # of iterations =  4.3

     total cpu time spent up to now is        0.5 secs

     total energy              =    -365.09305388 Ry
     estimated scf accuracy    <       0.21516493 Ry

     iteration #  2     ecut=    20.00 Ry     beta= 0.70
     Davidson diagonalization with overlap
     ethr =  6.72E-04,  avg # of iterations =  1.0

     total cpu time spent up to now is        0.6 secs

     total energy              =    -365.10163516 Ry
     estimated scf accuracy    <       0.00953103 Ry

     iteration #  3     ecut=    20.00 Ry     beta= 0.70
     Davidson diagonalization with overlap
     ethr =  2.98E-05,  avg # of iterations =  3.8

     total cpu time spent up to now is        0.7 secs

     total energy              =    -365.10499152 Ry
     estimated scf accuracy    <       0.00028119 Ry

     iteration #  4     ecut=    20.00 Ry     beta= 0.70
     Davidson diagonalization with overlap
     ethr =  8.79E-07,  avg # of iterations =  6.3

     total cpu time spent up to now is        0.9 secs

     End of self-consistent calculation

          k = 0.0833 0.0833 0.0833 (  1650 PWs)   bands (ev):

    -5.7380  -2.2677  -2.2671  -2.2671  -0.9984  -0.9979  -0.9979   2.9547
     2.9549   2.9549   3.3654   3.3654   3.3657   5.3022   6.0271   6.0271

          k = 0.0833 0.0833 0.2500 (  1636 PWs)   bands (ev):

    -5.4956  -3.3804  -2.1719  -2.1714  -0.9888  -0.9885   0.3592   2.3623
     2.3625   3.1610   3.1610   3.2286   3.5830   4.2271   5.3658   5.5594

          k = 0.0833 0.0833 0.4167 (  1631 PWs)   bands (ev):

    -5.0149  -4.3047  -2.0600  -2.0595  -0.9964  -0.9961   1.7302   2.0240
     2.0241   2.8162   2.8162   3.0298   3.7830   4.0097   4.6089   4.6239

          k = 0.0833 0.2500 0.2500 (  1629 PWs)   bands (ev):

    -5.2577  -3.2089  -3.2084  -2.2715  -0.9081   0.1322   0.1324   1.8955
     2.6931   2.6931   3.2051   3.5066   3.5069   3.7453   4.7617   5.8170

          k = 0.0833 0.2500 0.4167 (  1627 PWs)   bands (ev):

    -4.7873  -4.0966  -2.8997  -2.5399  -0.6615  -0.2647   1.1798   1.8703
     2.1787   2.1970   3.2619   3.4990   3.7163   3.9710   4.2301   5.1788

          k = 0.0833 0.4167 0.4167 (  1636 PWs)   bands (ev):

    -4.3409  -3.6972  -3.6967  -3.1478  -0.1600   0.4772   0.4772   1.2845
     2.0961   2.6061   2.6062   3.2242   4.4326   4.4945   4.4951   5.2344

          k = 0.2500 0.2500 0.2500 (  1637 PWs)   bands (ev):

    -5.0261  -3.0970  -3.0963  -3.0963  -0.2396  -0.2395  -0.2395   2.2121
     2.5861   2.5866   2.5866   3.9420   3.9420   3.9423   5.4035   5.4035

          k = 0.2500 0.2500 0.4167 (  1635 PWs)   bands (ev):

    -4.5710  -3.9124  -2.9632  -2.9627  -0.5992  -0.5991   0.4661   1.2699
     2.6557   2.6561   3.7053   3.9980   3.9980   4.3205   4.8389   4.8734

          k = 0.2500 0.4167 0.4167 (  1629 PWs)   bands (ev):

    -4.1543  -3.5812  -3.5807  -3.2058  -0.6396  -0.2317  -0.2316   0.4142
     3.1409   3.5749   3.5749   4.2965   4.5626   4.5970   4.5976   5.1697

          k = 0.4167 0.4167 0.4167 (  1640 PWs)   bands (ev):

    -3.8190  -3.4432  -3.4424  -3.4424  -0.7470  -0.7470  -0.7468  -0.3414
     4.3668   4.3675   4.3675   4.7818   4.7818   4.7821   5.0119   5.0119

     highest occupied level (ev):     6.0271

!    total energy              =    -365.10536476 Ry

     total all-electron energy =     -4632.162294 Ry
     estimated scf accuracy    <       0.00000059 Ry

     The total energy is the sum of the following terms:
     one-electron contribution =      22.97733890 Ry
     hartree contribution      =       4.30611190 Ry
     xc contribution           =     -48.33476716 Ry
     ewald contribution        =     -67.18414295 Ry
     one-center paw contrib.   =    -276.86990545 Ry

     convergence has been achieved in   4 iterations

     Writing output data file /home/ponet/.julia/environments/DFControlDEV/outputs/Si.save/

     init_run     :      0.20s CPU      0.21s WALL (       1 calls)
     electrons    :      0.65s CPU      0.66s WALL (       1 calls)

     Called by init_run:
     wfcinit      :      0.05s CPU      0.05s WALL (       1 calls)
     potinit      :      0.08s CPU      0.08s WALL (       1 calls)
     hinit0       :      0.06s CPU      0.07s WALL (       1 calls)

     Called by electrons:
     c_bands      :      0.37s CPU      0.38s WALL (       5 calls)
     sum_band     :      0.06s CPU      0.06s WALL (       5 calls)
     v_of_rho     :      0.03s CPU      0.03s WALL (       5 calls)
     newd         :      0.01s CPU      0.01s WALL (       5 calls)
     PAW_pot      :      0.22s CPU      0.22s WALL (       5 calls)
     mix_rho      :      0.00s CPU      0.00s WALL (       5 calls)

     Called by c_bands:
     init_us_2    :      0.01s CPU      0.01s WALL (      33 calls)
     cegterg      :      0.34s CPU      0.35s WALL (      15 calls)

     Called by *egterg:
     cdiaghg      :      0.01s CPU      0.01s WALL (      69 calls)
     h_psi        :      0.31s CPU      0.31s WALL (      75 calls)
     s_psi        :      0.02s CPU      0.02s WALL (      75 calls)
     g_psi        :      0.00s CPU      0.00s WALL (      57 calls)

     Called by h_psi:
     h_psi:calbec :      0.02s CPU      0.02s WALL (      75 calls)
     vloc_psi     :      0.26s CPU      0.27s WALL (      75 calls)
     add_vuspsi   :      0.02s CPU      0.02s WALL (      75 calls)

     General routines
     calbec       :      0.02s CPU      0.02s WALL (      90 calls)
     fft          :      0.01s CPU      0.02s WALL (      56 calls)
     ffts         :      0.00s CPU      0.00s WALL (       5 calls)
     fftw         :      0.26s CPU      0.27s WALL (    2016 calls)

     Parallel routines

     PWSCF        :      0.90s CPU      0.93s WALL


   This run was terminated on:   0:13:20  16Jun2021            

=------------------------------------------------------------------------------=
   JOB DONE.
=------------------------------------------------------------------------------=
