
     Program PWSCF v.7.0 starts on 29Nov2022 at 12:13: 5 

     This program is part of the open-source Quantum ESPRESSO suite
     for quantum simulation of materials; please cite
         "P. Giannozzi et al., J. Phys.:Condens. Matter 21 395502 (2009);
         "P. Giannozzi et al., J. Phys.:Condens. Matter 29 465901 (2017);
         "P. Giannozzi et al., J. Chem. Phys. 152 154105 (2020);
          URL http://www.quantum-espresso.org", 
     in publications or presentations arising from this work. More details at
     http://www.quantum-espresso.org/quote

     Parallel version (MPI), running on    14 processors

     MPI processes distributed on     1 nodes
     R & G space division:  proc/nbgrp/npool/nimage =      14
     2113 MiB available memory on the printing compute node when the environment starts
 
     Waiting for input...
     Reading input from standard input

     Current dimensions of program PWSCF are:
     Max number of different atomic species (ntypx) = 10
     Max number of k-points (npk) =  40000
     Max angular momentum in pseudopotentials (lmaxx) =  4
     Found identity + (  0.0000 -0.5000 -0.5000) symmetry
     This is a supercell, fractional translations are disabled
     Message from routine setup:
     using ibrav=0 with symmetry is DISCOURAGED, use correct ibrav instead

     Subspace diagonalization in iterative solution of the eigenvalue problem:
     one sub-group per band group will be used
     scalapack distributed-memory algorithm (size of sub-group:  3*  3 procs)

 
     Parallelization info
     --------------------
     sticks:   dense  smooth     PW     G-vecs:    dense   smooth      PW
     Min          48      48     14                  938      938     150
     Max          49      49     15                  939      939     152
     Sum         673     673    197                13133    13133    2109
 
     Using Slab Decomposition
 


     bravais-lattice index     =            0
     lattice parameter (alat)  =      10.2630  a.u.
     unit-cell volume          =    1080.9899 (a.u.)^3
     number of atoms/cell      =            8
     number of atomic types    =            1
     number of electrons       =        32.00
     number of Kohn-Sham states=           16
     kinetic-energy cutoff     =      20.0000  Ry
     charge density cutoff     =      80.0000  Ry
     scf convergence threshold =      1.0E-06
     mixing beta               =       0.7000
     number of iterations used =            8  plain     mixing
     Exchange-correlation= PBESOL
                           (   1   4  10   8   0   0   0)

     celldm(1)=  10.262989  celldm(2)=   0.000000  celldm(3)=   0.000000
     celldm(4)=   0.000000  celldm(5)=   0.000000  celldm(6)=   0.000000

     crystal axes: (cart. coord. in units of alat)
               a(1) = (   1.000000   0.000000   0.000000 )  
               a(2) = (   0.000000   1.000000   0.000000 )  
               a(3) = (   0.000000   0.000000   1.000000 )  

     reciprocal axes: (cart. coord. in units 2 pi/alat)
               b(1) = (  1.000000  0.000000  0.000000 )  
               b(2) = (  0.000000  1.000000  0.000000 )  
               b(3) = (  0.000000  0.000000  1.000000 )  


     PseudoPot. # 1 for Si read from file:
     ./Si.UPF
     MD5 check sum: 0f72aaed442cfea083ff16d3bfdace30
     Pseudo is Ultrasoft + core correction, Zval =  4.0
     Generated using "atomic" code by A. Dal Corso  v.6.0 svn rev. 13079
     Using radial grid of 1141 points,  6 beta functions with: 
                l(1) =   0
                l(2) =   0
                l(3) =   1
                l(4) =   1
                l(5) =   2
                l(6) =   2
     Q(r) pseudized with 0 coefficients 


     atomic species   valence    mass     pseudopotential
        Si             4.00    28.08550     Si( 1.00)

     24 Sym. Ops. (no inversion) found



   Cartesian axes

     site n.     atom                  positions (alat units)
         1           Si  tau(   1) = (   0.0000000   0.0000000   0.0000000  )
         2           Si  tau(   2) = (   0.0000000   0.5000000   0.5000000  )
         3           Si  tau(   3) = (   0.2500000   0.2500000   0.2500000  )
         4           Si  tau(   4) = (   0.5000000   0.0000000   0.5000000  )
         5           Si  tau(   5) = (   0.2500000   0.7500000   0.7500000  )
         6           Si  tau(   6) = (   0.7500000   0.7500000   0.2500000  )
         7           Si  tau(   7) = (   0.7500000   0.2500000   0.7500000  )
         8           Si  tau(   8) = (   0.5000000   0.5000000   0.0000000  )

     number of k points=    10
                       cart. coord. in units 2pi/alat
        k(    1) = (   0.0833333   0.0833333   0.0833333), wk =   0.0740741
        k(    2) = (   0.0833333   0.0833333   0.2500000), wk =   0.2222222
        k(    3) = (   0.0833333   0.0833333   0.4166667), wk =   0.2222222
        k(    4) = (   0.0833333   0.2500000   0.2500000), wk =   0.2222222
        k(    5) = (   0.0833333   0.2500000   0.4166667), wk =   0.4444444
        k(    6) = (   0.0833333   0.4166667   0.4166667), wk =   0.2222222
        k(    7) = (   0.2500000   0.2500000   0.2500000), wk =   0.0740741
        k(    8) = (   0.2500000   0.2500000   0.4166667), wk =   0.2222222
        k(    9) = (   0.2500000   0.4166667   0.4166667), wk =   0.2222222
        k(   10) = (   0.4166667   0.4166667   0.4166667), wk =   0.0740741

     Dense  grid:    13133 G-vectors     FFT dimensions: (  30,  30,  30)

     Estimated max dynamical RAM per process >       4.64 MB

     Estimated total dynamical RAM >      64.93 MB

     Check: negative core charge=   -0.000010

     Initial potential from superposition of free atoms

     starting charge      31.9957, renormalised to      32.0000
     Starting wfcs are   32 randomized atomic wfcs

     total cpu time spent up to now is        4.2 secs

     Self-consistent Calculation

     iteration #  1     ecut=    20.00 Ry     beta= 0.70
     Davidson diagonalization with overlap
     ethr =  1.00E-02,  avg # of iterations =  2.0

     Threshold (ethr) on eigenvalues was too large:
     Diagonalizing with lowered threshold

     Davidson diagonalization with overlap
     ethr =  6.04E-04,  avg # of iterations =  2.0

     total cpu time spent up to now is       10.6 secs

     total energy              =     -90.69022013 Ry
     estimated scf accuracy    <       0.21049471 Ry

     iteration #  2     ecut=    20.00 Ry     beta= 0.70
     Davidson diagonalization with overlap
     ethr =  6.04E-04,  avg # of iterations =  1.0

     total cpu time spent up to now is       11.4 secs

     total energy              =     -90.69862471 Ry
     estimated scf accuracy    <       0.00940295 Ry

     iteration #  3     ecut=    20.00 Ry     beta= 0.70
     Davidson diagonalization with overlap
     ethr =  2.94E-05,  avg # of iterations =  3.2

     total cpu time spent up to now is       13.1 secs

     total energy              =     -90.70213170 Ry
     estimated scf accuracy    <       0.00048403 Ry

     iteration #  4     ecut=    20.00 Ry     beta= 0.70
     Davidson diagonalization with overlap
     ethr =  1.51E-06,  avg # of iterations =  5.0

     total cpu time spent up to now is       14.3 secs

     total energy              =     -90.70238486 Ry
     estimated scf accuracy    <       0.00006398 Ry

     iteration #  5     ecut=    20.00 Ry     beta= 0.70
     Davidson diagonalization with overlap
     ethr =  2.00E-07,  avg # of iterations =  4.4

     total cpu time spent up to now is       16.6 secs

     total energy              =     -90.70240819 Ry
     estimated scf accuracy    <       0.00000121 Ry

     iteration #  6     ecut=    20.00 Ry     beta= 0.70
     Davidson diagonalization with overlap
     ethr =  3.78E-09,  avg # of iterations =  6.6

     total cpu time spent up to now is       18.8 secs

     End of self-consistent calculation

          k = 0.0833 0.0833 0.0833 (  1650 PWs)   bands (ev):

    -5.7383  -2.2710  -2.2710  -2.2710  -1.0024  -1.0024  -1.0023   2.9485
     2.9485   2.9485   3.3593   3.3593   3.3593   5.2944   6.0183   6.0183

          k = 0.0833 0.0833 0.2500 (  1636 PWs)   bands (ev):

    -5.4962  -3.3833  -2.1754  -2.1754  -0.9930  -0.9929   0.3543   2.3561
     2.3562   3.1546   3.1546   3.2220   3.5765   4.2201   5.3575   5.5512

          k = 0.0833 0.0833 0.4167 (  1631 PWs)   bands (ev):

    -5.0162  -4.3068  -2.0636  -2.0636  -1.0006  -1.0006   1.7246   2.0179
     2.0179   2.8097   2.8097   3.0235   3.7760   4.0026   4.6013   4.6162

          k = 0.0833 0.2500 0.2500 (  1629 PWs)   bands (ev):

    -5.2586  -3.2117  -3.2116  -2.2753  -0.9126   0.1275   0.1275   1.8894
     2.6867   2.6867   3.1986   3.5000   3.5001   3.7388   4.7538   5.8088

          k = 0.0833 0.2500 0.4167 (  1627 PWs)   bands (ev):

    -4.7888  -4.0988  -2.9030  -2.5434  -0.6661  -0.2694   1.1744   1.8643
     2.1726   2.1908   3.2551   3.4922   3.7095   3.9637   4.2229   5.1711

          k = 0.0833 0.4167 0.4167 (  1636 PWs)   bands (ev):

    -4.3428  -3.6996  -3.6995  -3.1509  -0.1648   0.4721   0.4721   1.2789
     2.0899   2.5997   2.5997   3.2172   4.4256   4.4875   4.4876   5.2269

          k = 0.2500 0.2500 0.2500 (  1637 PWs)   bands (ev):

    -5.0272  -3.0997  -3.0997  -3.0996  -0.2443  -0.2443  -0.2443   2.2060
     2.5800   2.5800   2.5801   3.9354   3.9354   3.9354   5.3956   5.3956

          k = 0.2500 0.2500 0.4167 (  1635 PWs)   bands (ev):

    -4.5727  -3.9149  -2.9663  -2.9662  -0.6037  -0.6037   0.4608   1.2642
     2.6495   2.6496   3.6984   3.9910   3.9910   4.3134   4.8313   4.8661

          k = 0.2500 0.4167 0.4167 (  1629 PWs)   bands (ev):

    -4.1565  -3.5837  -3.5837  -3.2089  -0.6440  -0.2365  -0.2365   0.4089
     3.1343   3.5682   3.5682   4.2894   4.5555   4.5901   4.5901   5.1623

          k = 0.4167 0.4167 0.4167 (  1640 PWs)   bands (ev):

    -3.8217  -3.4457  -3.4457  -3.4456  -0.7514  -0.7514  -0.7514  -0.3461
     4.3602   4.3602   4.3603   4.7748   4.7748   4.7748   5.0047   5.0047

     highest occupied level (ev):     6.0183

!    total energy              =     -90.70240982 Ry
     estimated scf accuracy    <       0.00000002 Ry

     The total energy is the sum of the following terms:
     one-electron contribution =      20.71761479 Ry
     hartree contribution      =       4.31650520 Ry
     xc contribution           =     -48.55238686 Ry
     ewald contribution        =     -67.18414295 Ry

     convergence has been achieved in   6 iterations

     Writing all to output data dir ./outputs/Si.save/
 
     init_run     :      0.75s CPU      2.19s WALL (       1 calls)
     electrons    :      7.62s CPU     14.58s WALL (       1 calls)

     Called by init_run:
     wfcinit      :      0.62s CPU      1.40s WALL (       1 calls)
     potinit      :      0.04s CPU      0.14s WALL (       1 calls)
     hinit0       :      0.08s CPU      0.56s WALL (       1 calls)

     Called by electrons:
     c_bands      :      7.09s CPU     13.34s WALL (       7 calls)
     sum_band     :      0.46s CPU      1.00s WALL (       7 calls)
     v_of_rho     :      0.04s CPU      0.12s WALL (       7 calls)
     newd         :      0.04s CPU      0.07s WALL (       7 calls)
     mix_rho      :      0.01s CPU      0.01s WALL (       7 calls)

     Called by c_bands:
     init_us_2    :      0.01s CPU      0.01s WALL (     150 calls)
     init_us_2:cp :      0.01s CPU      0.01s WALL (     150 calls)
     cegterg      :      6.92s CPU     13.03s WALL (      70 calls)

     Called by *egterg:
     cdiaghg      :      2.77s CPU      4.66s WALL (     302 calls)
     h_psi        :      2.11s CPU      4.43s WALL (     322 calls)
     s_psi        :      0.01s CPU      0.02s WALL (     322 calls)
     g_psi        :      0.00s CPU      0.00s WALL (     242 calls)

     Called by h_psi:
     h_psi:calbec :      0.27s CPU      0.47s WALL (     322 calls)
     vloc_psi     :      1.83s CPU      3.93s WALL (     322 calls)
     add_vuspsi   :      0.02s CPU      0.03s WALL (     322 calls)

     General routines
     calbec       :      0.34s CPU      0.61s WALL (     392 calls)
     fft          :      0.07s CPU      0.29s WALL (      78 calls)
     ffts         :      0.00s CPU      0.01s WALL (       7 calls)
     fftw         :      2.14s CPU      4.64s WALL (    8812 calls)
 
     Parallel routines
 
     PWSCF        :      8.80s CPU     18.89s WALL

 
   This run was terminated on:  12:13:23  29Nov2022            

=------------------------------------------------------------------------------=
   JOB DONE.
=------------------------------------------------------------------------------=
