
     Program PWSCF v.6.7GPU starts on 19May2021 at 13: 1: 8 

     This program is part of the open-source Quantum ESPRESSO suite
     for quantum simulation of materials; please cite
         "P. Giannozzi et al., J. Phys.:Condens. Matter 21 395502 (2009);
         "P. Giannozzi et al., J. Phys.:Condens. Matter 29 465901 (2017);
         "P. Giannozzi et al., J. Chem. Phys. 152 154105 (2020);
          URL http://www.quantum-espresso.org", 
     in publications or presentations arising from this work. More details at
     http://www.quantum-espresso.org/quote

     Parallel version (MPI & OpenMP), running on       4 processor cores
     Number of MPI processes:                 4
     Threads/MPI process:                     1

     MPI processes distributed on     1 nodes
     K-points division:     npool     =       4
     Waiting for input...
     Reading input from standard input

     Current dimensions of program PWSCF are:
     Max number of different atomic species (ntypx) = 10
     Max number of k-points (npk) =  40000
     Max angular momentum in pseudopotentials (lmaxx) =  3

     Atomic positions and unit cell read from directory:
     /home/ponet/.julia/environments/DFControlDEV/Demo/Ni/outputs/Ni.save/

     file Ni.pbesol-n-kjpaw_psl.0.1.UPF: wavefunction(s)  4S 3D renormalized
     file Ni.pbesol-n-kjpaw_psl.0.1.UPF: wavefunction(s)  4S 3D renormalized
     Message from routine setup:
     using ibrav=0 with symmetry is DISCOURAGED, use correct ibrav instead

     Subspace diagonalization in iterative solution of the eigenvalue problem:
     a serial algorithm will be used


     G-vector sticks info
     --------------------
     sticks:   dense  smooth     PW     G-vecs:    dense   smooth      PW
     Sum         247     247     91                 1779     1779     391

     Using Slab Decomposition



     bravais-lattice index     =            0
     lattice parameter (alat)  =       9.3691  a.u.
     unit-cell volume          =     145.3870 (a.u.)^3
     number of atoms/cell      =            2
     number of atomic types    =            2
     number of electrons       =        20.00
     number of Kohn-Sham states=           18
     kinetic-energy cutoff     =      20.0000  Ry
     charge density cutoff     =      80.0000  Ry
     Exchange-correlation= SLA  PW   PSX  PSC
                           (   1   4  10   8   0   0   0)

     celldm(1)=   9.369149  celldm(2)=   0.000000  celldm(3)=   0.000000
     celldm(4)=   0.000000  celldm(5)=   0.000000  celldm(6)=   0.000000

     crystal axes: (cart. coord. in units of alat)
               a(1) = (   1.000000   0.000000   0.000000 )  
               a(2) = (   0.250000   0.433013   0.000000 )  
               a(3) = (   0.250000   0.144338   0.408248 )  

     reciprocal axes: (cart. coord. in units 2 pi/alat)
               b(1) = (  1.000000 -0.577350 -0.408248 )  
               b(2) = (  0.000000  2.309401 -0.816497 )  
               b(3) = (  0.000000  0.000000  2.449490 )  


     PseudoPot. # 1 for Ni read from file:
     /home/ponet/Documents/pseudos/pslibrary_pbesol/PSEUDOPOTENTIALS/Ni.pbesol-n-kjpaw_psl.0.1.UPF
     MD5 check sum: dc9a32037601bdf441cde0bb508f809f
     Pseudo is Projector augmented-wave + core cor, Zval = 10.0
     Generated using "atomic" code by A. Dal Corso  v.5.0.99 svn rev. 10869
     Shape of augmentation charge: PSQ
     Using radial grid of 1195 points,  6 beta functions with: 
                l(1) =   0
                l(2) =   0
                l(3) =   1
                l(4) =   1
                l(5) =   2
                l(6) =   2
     Q(r) pseudized with 0 coefficients 


     PseudoPot. # 2 for Ni read from file:
     /home/ponet/Documents/pseudos/pslibrary_pbesol/PSEUDOPOTENTIALS/Ni.pbesol-n-kjpaw_psl.0.1.UPF
     MD5 check sum: dc9a32037601bdf441cde0bb508f809f
     Pseudo is Projector augmented-wave + core cor, Zval = 10.0
     Generated using "atomic" code by A. Dal Corso  v.5.0.99 svn rev. 10869
     Shape of augmentation charge: PSQ
     Using radial grid of 1195 points,  6 beta functions with: 
                l(1) =   0
                l(2) =   0
                l(3) =   1
                l(4) =   1
                l(5) =   2
                l(6) =   2
     Q(r) pseudized with 0 coefficients 


     atomic species   valence    mass     pseudopotential
        Ni            10.00    58.69340     Ni( 1.00)
        Ni1           10.00    58.69340     Ni( 1.00)

     Starting magnetic structure 
     atomic species   magnetization
        Ni           0.100
        Ni1         -0.100


     Simplified LDA+U calculation (l_max = 2) with parameters (eV):
     atomic species    L          U    alpha       J0     beta
        Ni             2     4.0000   0.0000   0.0000   0.0000
        Ni1            2     4.0000   0.0000   0.0000   0.0000



      4 Sym. Ops., with inversion, found


                                    s                        frac. trans.

      isym =  1     identity                                     

 cryst.   s( 1) = (     1          0          0      )
                  (     0          1          0      )
                  (     0          0          1      )

 cart.    s( 1) = (  1.0000000  0.0000000  0.0000000 )
                  (  0.0000000  1.0000000  0.0000000 )
                  (  0.0000000  0.0000000  1.0000000 )


      isym =  2     180 deg rotation - cryst. axis [1,1,0]       

 cryst.   s( 2) = (    -1          2          0      )
                  (     0          1          0      )
                  (     0          1         -1      )

 cart.    s( 2) = ( -0.5000000  0.8660254  0.0000000 )
                  (  0.8660254  0.5000000  0.0000000 )
                  (  0.0000000  0.0000000 -1.0000000 )


      isym =  3     inversion                                    

 cryst.   s( 3) = (    -1          0          0      )
                  (     0         -1          0      )
                  (     0          0         -1      )

 cart.    s( 3) = ( -1.0000000  0.0000000  0.0000000 )
                  (  0.0000000 -1.0000000 -0.0000000 )
                  (  0.0000000  0.0000000 -1.0000000 )


      isym =  4     inv. 180 deg rotation - cryst. axis [1,1,0]  

 cryst.   s( 4) = (     1         -2          0      )
                  (     0         -1          0      )
                  (     0         -1          1      )

 cart.    s( 4) = (  0.5000000 -0.8660254 -0.0000000 )
                  ( -0.8660254 -0.5000000 -0.0000000 )
                  (  0.0000000  0.0000000  1.0000000 )


   Cartesian axes

     site n.     atom                  positions (alat units)
         1           Ni  tau(   1) = (   0.0000000   0.0000000   0.0000000  )
         2           Ni1 tau(   2) = (   0.5000000   0.0000000   0.0000000  )

   Crystallographic axes

     site n.     atom                  positions (cryst. coord.)
         1           Ni  tau(   1) = (  0.0000000  0.0000000  0.0000000  )
         2           Ni1 tau(   2) = (  0.5000000  0.0000000  0.0000000  )

     number of k points=   221  Gaussian smearing, width (Ry)=  0.0100
                       cart. coord. in units 2pi/alat
        k(    1) = (   0.0000000   0.0000000   0.0000000), wk =   0.0045249
        k(    2) = (   0.0250000  -0.0144338   0.0510310), wk =   0.0045249
        k(    3) = (   0.0500000  -0.0288675   0.1020621), wk =   0.0045249
        k(    4) = (   0.0750000  -0.0433013   0.1530931), wk =   0.0045249
        k(    5) = (   0.1000000  -0.0577350   0.2041241), wk =   0.0045249
        k(    6) = (   0.1250000  -0.0721688   0.2551552), wk =   0.0045249
        k(    7) = (   0.1500000  -0.0866025   0.3061862), wk =   0.0045249
        k(    8) = (   0.1750000  -0.1010363   0.3572173), wk =   0.0045249
        k(    9) = (   0.2000000  -0.1154701   0.4082483), wk =   0.0045249
        k(   10) = (   0.2250000  -0.1299038   0.4592793), wk =   0.0045249
        k(   11) = (   0.2500000  -0.1443376   0.5103104), wk =   0.0045249
        k(   12) = (   0.2750000  -0.1587713   0.5613414), wk =   0.0045249
        k(   13) = (   0.3000000  -0.1732051   0.6123724), wk =   0.0045249
        k(   14) = (   0.3250000  -0.1876388   0.6634035), wk =   0.0045249
        k(   15) = (   0.3500000  -0.2020726   0.7144345), wk =   0.0045249
        k(   16) = (   0.3750000  -0.2165064   0.7654655), wk =   0.0045249
        k(   17) = (   0.4000000  -0.2309401   0.8164966), wk =   0.0045249
        k(   18) = (   0.4250000  -0.2453739   0.8675276), wk =   0.0045249
        k(   19) = (   0.4500000  -0.2598076   0.9185587), wk =   0.0045249
        k(   20) = (   0.4750000  -0.2742414   0.9695897), wk =   0.0045249
        k(   21) = (   0.5000000  -0.2886751   1.0206207), wk =   0.0045249
        k(   22) = (   0.5000000  -0.2598076   1.0410331), wk =   0.0045249
        k(   23) = (   0.5000000  -0.2309401   1.0614456), wk =   0.0045249
        k(   24) = (   0.5000000  -0.2020726   1.0818580), wk =   0.0045249
        k(   25) = (   0.5000000  -0.1732051   1.1022704), wk =   0.0045249
        k(   26) = (   0.5000000  -0.1443376   1.1226828), wk =   0.0045249
        k(   27) = (   0.5000000  -0.1154701   1.1430952), wk =   0.0045249
        k(   28) = (   0.5000000  -0.0866025   1.1635076), wk =   0.0045249
        k(   29) = (   0.5000000  -0.0577350   1.1839200), wk =   0.0045249
        k(   30) = (   0.5000000  -0.0288675   1.2043325), wk =   0.0045249
        k(   31) = (   0.5000000   0.0000000   1.2247449), wk =   0.0045249
        k(   32) = (   0.5000000   0.0288675   1.2451573), wk =   0.0045249
        k(   33) = (   0.5000000   0.0577350   1.2655697), wk =   0.0045249
        k(   34) = (   0.5000000   0.0866025   1.2859821), wk =   0.0045249
        k(   35) = (   0.5000000   0.1154701   1.3063945), wk =   0.0045249
        k(   36) = (   0.5000000   0.1443376   1.3268069), wk =   0.0045249
        k(   37) = (   0.5000000   0.1732051   1.3472194), wk =   0.0045249
        k(   38) = (   0.5000000   0.2020726   1.3676318), wk =   0.0045249
        k(   39) = (   0.5000000   0.2309401   1.3880442), wk =   0.0045249
        k(   40) = (   0.5000000   0.2598076   1.4084566), wk =   0.0045249
        k(   41) = (   0.5000000   0.2886751   1.4288690), wk =   0.0045249
        k(   42) = (   0.4937500   0.3067173   1.4263175), wk =   0.0045249
        k(   43) = (   0.4875000   0.3247595   1.4237659), wk =   0.0045249
        k(   44) = (   0.4812500   0.3428017   1.4212144), wk =   0.0045249
        k(   45) = (   0.4750000   0.3608439   1.4186628), wk =   0.0045249
        k(   46) = (   0.4687500   0.3788861   1.4161113), wk =   0.0045249
        k(   47) = (   0.4625000   0.3969283   1.4135597), wk =   0.0045249
        k(   48) = (   0.4562500   0.4149705   1.4110082), wk =   0.0045249
        k(   49) = (   0.4500000   0.4330127   1.4084566), wk =   0.0045249
        k(   50) = (   0.4437500   0.4510549   1.4059051), wk =   0.0045249
        k(   51) = (   0.4375000   0.4690971   1.4033535), wk =   0.0045249
        k(   52) = (   0.4312500   0.4871393   1.4008019), wk =   0.0045249
        k(   53) = (   0.4250000   0.5051815   1.3982504), wk =   0.0045249
        k(   54) = (   0.4187500   0.5232237   1.3956988), wk =   0.0045249
        k(   55) = (   0.4125000   0.5412659   1.3931473), wk =   0.0045249
        k(   56) = (   0.4062500   0.5593081   1.3905957), wk =   0.0045249
        k(   57) = (   0.4000000   0.5773503   1.3880442), wk =   0.0045249
        k(   58) = (   0.3937500   0.5953925   1.3854926), wk =   0.0045249
        k(   59) = (   0.3875000   0.6134347   1.3829411), wk =   0.0045249
        k(   60) = (   0.3812500   0.6314769   1.3803895), wk =   0.0045249
        k(   61) = (   0.3750000   0.6495191   1.3778380), wk =   0.0045249
        k(   62) = (   0.3562500   0.6170431   1.3089461), wk =   0.0045249
        k(   63) = (   0.3375000   0.5845671   1.2400542), wk =   0.0045249
        k(   64) = (   0.3187500   0.5520912   1.1711623), wk =   0.0045249
        k(   65) = (   0.3000000   0.5196152   1.1022704), wk =   0.0045249
        k(   66) = (   0.2812500   0.4871393   1.0333785), wk =   0.0045249
        k(   67) = (   0.2625000   0.4546633   0.9644866), wk =   0.0045249
        k(   68) = (   0.2437500   0.4221874   0.8955947), wk =   0.0045249
        k(   69) = (   0.2250000   0.3897114   0.8267028), wk =   0.0045249
        k(   70) = (   0.2062500   0.3572355   0.7578109), wk =   0.0045249
        k(   71) = (   0.1875000   0.3247595   0.6889190), wk =   0.0045249
        k(   72) = (   0.1687500   0.2922836   0.6200271), wk =   0.0045249
        k(   73) = (   0.1500000   0.2598076   0.5511352), wk =   0.0045249
        k(   74) = (   0.1312500   0.2273317   0.4822433), wk =   0.0045249
        k(   75) = (   0.1125000   0.1948557   0.4133514), wk =   0.0045249
        k(   76) = (   0.0937500   0.1623798   0.3444595), wk =   0.0045249
        k(   77) = (   0.0750000   0.1299038   0.2755676), wk =   0.0045249
        k(   78) = (   0.0562500   0.0974279   0.2066757), wk =   0.0045249
        k(   79) = (   0.0375000   0.0649519   0.1377838), wk =   0.0045249
        k(   80) = (   0.0187500   0.0324760   0.0688919), wk =   0.0045249
        k(   81) = (   0.0000000   0.0000000   0.0000000), wk =   0.0045249
        k(   82) = (   0.0250000   0.0433013   0.0306186), wk =   0.0045249
        k(   83) = (   0.0500000   0.0866025   0.0612372), wk =   0.0045249
        k(   84) = (   0.0750000   0.1299038   0.0918559), wk =   0.0045249
        k(   85) = (   0.1000000   0.1732051   0.1224745), wk =   0.0045249
        k(   86) = (   0.1250000   0.2165064   0.1530931), wk =   0.0045249
        k(   87) = (   0.1500000   0.2598076   0.1837117), wk =   0.0045249
        k(   88) = (   0.1750000   0.3031089   0.2143304), wk =   0.0045249
        k(   89) = (   0.2000000   0.3464102   0.2449490), wk =   0.0045249
        k(   90) = (   0.2250000   0.3897114   0.2755676), wk =   0.0045249
        k(   91) = (   0.2500000   0.4330127   0.3061862), wk =   0.0045249
        k(   92) = (   0.2750000   0.4763140   0.3368048), wk =   0.0045249
        k(   93) = (   0.3000000   0.5196152   0.3674235), wk =   0.0045249
        k(   94) = (   0.3250000   0.5629165   0.3980421), wk =   0.0045249
        k(   95) = (   0.3500000   0.6062178   0.4286607), wk =   0.0045249
        k(   96) = (   0.3750000   0.6495191   0.4592793), wk =   0.0045249
        k(   97) = (   0.4000000   0.6928203   0.4898979), wk =   0.0045249
        k(   98) = (   0.4250000   0.7361216   0.5205166), wk =   0.0045249
        k(   99) = (   0.4500000   0.7794229   0.5511352), wk =   0.0045249
        k(  100) = (   0.4750000   0.8227241   0.5817538), wk =   0.0045249
        k(  101) = (   0.5000000   0.8660254   0.6123724), wk =   0.0045249
        k(  102) = (   0.5062500   0.8335495   0.6353364), wk =   0.0045249
        k(  103) = (   0.5125000   0.8010735   0.6583004), wk =   0.0045249
        k(  104) = (   0.5187500   0.7685975   0.6812643), wk =   0.0045249
        k(  105) = (   0.5250000   0.7361216   0.7042283), wk =   0.0045249
        k(  106) = (   0.5312500   0.7036456   0.7271923), wk =   0.0045249
        k(  107) = (   0.5375000   0.6711697   0.7501562), wk =   0.0045249
        k(  108) = (   0.5437500   0.6386937   0.7731202), wk =   0.0045249
        k(  109) = (   0.5500000   0.6062178   0.7960842), wk =   0.0045249
        k(  110) = (   0.5562500   0.5737418   0.8190481), wk =   0.0045249
        k(  111) = (   0.5625000   0.5412659   0.8420121), wk =   0.0045249
        k(  112) = (   0.5687500   0.5087899   0.8649761), wk =   0.0045249
        k(  113) = (   0.5750000   0.4763140   0.8879400), wk =   0.0045249
        k(  114) = (   0.5812500   0.4438380   0.9109040), wk =   0.0045249
        k(  115) = (   0.5875000   0.4113621   0.9338680), wk =   0.0045249
        k(  116) = (   0.5937500   0.3788861   0.9568319), wk =   0.0045249
        k(  117) = (   0.6000000   0.3464102   0.9797959), wk =   0.0045249
        k(  118) = (   0.6062500   0.3139342   1.0027599), wk =   0.0045249
        k(  119) = (   0.6125000   0.2814583   1.0257238), wk =   0.0045249
        k(  120) = (   0.6187500   0.2489823   1.0486878), wk =   0.0045249
        k(  121) = (   0.6250000   0.2165064   1.0716518), wk =   0.0045249
        k(  122) = (   0.6187500   0.2201148   1.0895126), wk =   0.0045249
        k(  123) = (   0.6125000   0.2237232   1.1073735), wk =   0.0045249
        k(  124) = (   0.6062500   0.2273317   1.1252344), wk =   0.0045249
        k(  125) = (   0.6000000   0.2309401   1.1430952), wk =   0.0045249
        k(  126) = (   0.5937500   0.2345485   1.1609561), wk =   0.0045249
        k(  127) = (   0.5875000   0.2381570   1.1788169), wk =   0.0045249
        k(  128) = (   0.5812500   0.2417654   1.1966778), wk =   0.0045249
        k(  129) = (   0.5750000   0.2453739   1.2145387), wk =   0.0045249
        k(  130) = (   0.5687500   0.2489823   1.2323995), wk =   0.0045249
        k(  131) = (   0.5625000   0.2525907   1.2502604), wk =   0.0045249
        k(  132) = (   0.5562500   0.2561992   1.2681213), wk =   0.0045249
        k(  133) = (   0.5500000   0.2598076   1.2859821), wk =   0.0045249
        k(  134) = (   0.5437500   0.2634161   1.3038430), wk =   0.0045249
        k(  135) = (   0.5375000   0.2670245   1.3217038), wk =   0.0045249
        k(  136) = (   0.5312500   0.2706329   1.3395647), wk =   0.0045249
        k(  137) = (   0.5250000   0.2742414   1.3574256), wk =   0.0045249
        k(  138) = (   0.5187500   0.2778498   1.3752864), wk =   0.0045249
        k(  139) = (   0.5125000   0.2814583   1.3931473), wk =   0.0045249
        k(  140) = (   0.5062500   0.2850667   1.4110082), wk =   0.0045249
        k(  141) = (   0.5000000   0.2886751   1.4288690), wk =   0.0045249
        k(  142) = (   0.5000000   0.3175426   1.3880442), wk =   0.0045249
        k(  143) = (   0.5000000   0.3464102   1.3472194), wk =   0.0045249
        k(  144) = (   0.5000000   0.3752777   1.3063945), wk =   0.0045249
        k(  145) = (   0.5000000   0.4041452   1.2655697), wk =   0.0045249
        k(  146) = (   0.5000000   0.4330127   1.2247449), wk =   0.0045249
        k(  147) = (   0.5000000   0.4618802   1.1839200), wk =   0.0045249
        k(  148) = (   0.5000000   0.4907477   1.1430952), wk =   0.0045249
        k(  149) = (   0.5000000   0.5196152   1.1022704), wk =   0.0045249
        k(  150) = (   0.5000000   0.5484828   1.0614456), wk =   0.0045249
        k(  151) = (   0.5000000   0.5773503   1.0206207), wk =   0.0045249
        k(  152) = (   0.5000000   0.6062178   0.9797959), wk =   0.0045249
        k(  153) = (   0.5000000   0.6350853   0.9389711), wk =   0.0045249
        k(  154) = (   0.5000000   0.6639528   0.8981462), wk =   0.0045249
        k(  155) = (   0.5000000   0.6928203   0.8573214), wk =   0.0045249
        k(  156) = (   0.5000000   0.7216878   0.8164966), wk =   0.0045249
        k(  157) = (   0.5000000   0.7505553   0.7756718), wk =   0.0045249
        k(  158) = (   0.5000000   0.7794229   0.7348469), wk =   0.0045249
        k(  159) = (   0.5000000   0.8082904   0.6940221), wk =   0.0045249
        k(  160) = (   0.5000000   0.8371579   0.6531973), wk =   0.0045249
        k(  161) = (   0.5000000   0.8660254   0.6123724), wk =   0.0045249
        k(  162) = (   0.4937500   0.8552001   0.6506457), wk =   0.0045249
        k(  163) = (   0.4875000   0.8443748   0.6889190), wk =   0.0045249
        k(  164) = (   0.4812500   0.8335495   0.7271923), wk =   0.0045249
        k(  165) = (   0.4750000   0.8227241   0.7654655), wk =   0.0045249
        k(  166) = (   0.4687500   0.8118988   0.8037388), wk =   0.0045249
        k(  167) = (   0.4625000   0.8010735   0.8420121), wk =   0.0045249
        k(  168) = (   0.4562500   0.7902482   0.8802854), wk =   0.0045249
        k(  169) = (   0.4500000   0.7794229   0.9185587), wk =   0.0045249
        k(  170) = (   0.4437500   0.7685975   0.9568319), wk =   0.0045249
        k(  171) = (   0.4375000   0.7577722   0.9951052), wk =   0.0045249
        k(  172) = (   0.4312500   0.7469469   1.0333785), wk =   0.0045249
        k(  173) = (   0.4250000   0.7361216   1.0716518), wk =   0.0045249
        k(  174) = (   0.4187500   0.7252963   1.1099250), wk =   0.0045249
        k(  175) = (   0.4125000   0.7144710   1.1481983), wk =   0.0045249
        k(  176) = (   0.4062500   0.7036456   1.1864716), wk =   0.0045249
        k(  177) = (   0.4000000   0.6928203   1.2247449), wk =   0.0045249
        k(  178) = (   0.3937500   0.6819950   1.2630181), wk =   0.0045249
        k(  179) = (   0.3875000   0.6711697   1.3012914), wk =   0.0045249
        k(  180) = (   0.3812500   0.6603444   1.3395647), wk =   0.0045249
        k(  181) = (   0.3750000   0.6495191   1.3778380), wk =   0.0045249
        k(  182) = (   0.3875000   0.6278684   1.3625287), wk =   0.0045249
        k(  183) = (   0.4000000   0.6062178   1.3472194), wk =   0.0045249
        k(  184) = (   0.4125000   0.5845671   1.3319100), wk =   0.0045249
        k(  185) = (   0.4250000   0.5629165   1.3166007), wk =   0.0045249
        k(  186) = (   0.4375000   0.5412659   1.3012914), wk =   0.0045249
        k(  187) = (   0.4500000   0.5196152   1.2859821), wk =   0.0045249
        k(  188) = (   0.4625000   0.4979646   1.2706728), wk =   0.0045249
        k(  189) = (   0.4750000   0.4763140   1.2553635), wk =   0.0045249
        k(  190) = (   0.4875000   0.4546633   1.2400542), wk =   0.0045249
        k(  191) = (   0.5000000   0.4330127   1.2247449), wk =   0.0045249
        k(  192) = (   0.5125000   0.4113621   1.2094356), wk =   0.0045249
        k(  193) = (   0.5250000   0.3897114   1.1941262), wk =   0.0045249
        k(  194) = (   0.5375000   0.3680608   1.1788169), wk =   0.0045249
        k(  195) = (   0.5500000   0.3464102   1.1635076), wk =   0.0045249
        k(  196) = (   0.5625000   0.3247595   1.1481983), wk =   0.0045249
        k(  197) = (   0.5750000   0.3031089   1.1328890), wk =   0.0045249
        k(  198) = (   0.5875000   0.2814583   1.1175797), wk =   0.0045249
        k(  199) = (   0.6000000   0.2598076   1.1022704), wk =   0.0045249
        k(  200) = (   0.6125000   0.2381570   1.0869611), wk =   0.0045249
        k(  201) = (   0.6250000   0.2165064   1.0716518), wk =   0.0045249
        k(  202) = (   0.6187500   0.1912473   1.0691002), wk =   0.0045249
        k(  203) = (   0.6125000   0.1659882   1.0665487), wk =   0.0045249
        k(  204) = (   0.6062500   0.1407291   1.0639971), wk =   0.0045249
        k(  205) = (   0.6000000   0.1154701   1.0614456), wk =   0.0045249
        k(  206) = (   0.5937500   0.0902110   1.0588940), wk =   0.0045249
        k(  207) = (   0.5875000   0.0649519   1.0563425), wk =   0.0045249
        k(  208) = (   0.5812500   0.0396928   1.0537909), wk =   0.0045249
        k(  209) = (   0.5750000   0.0144338   1.0512393), wk =   0.0045249
        k(  210) = (   0.5687500  -0.0108253   1.0486878), wk =   0.0045249
        k(  211) = (   0.5625000  -0.0360844   1.0461362), wk =   0.0045249
        k(  212) = (   0.5562500  -0.0613435   1.0435847), wk =   0.0045249
        k(  213) = (   0.5500000  -0.0866025   1.0410331), wk =   0.0045249
        k(  214) = (   0.5437500  -0.1118616   1.0384816), wk =   0.0045249
        k(  215) = (   0.5375000  -0.1371207   1.0359300), wk =   0.0045249
        k(  216) = (   0.5312500  -0.1623798   1.0333785), wk =   0.0045249
        k(  217) = (   0.5250000  -0.1876388   1.0308269), wk =   0.0045249
        k(  218) = (   0.5187500  -0.2128979   1.0282754), wk =   0.0045249
        k(  219) = (   0.5125000  -0.2381570   1.0257238), wk =   0.0045249
        k(  220) = (   0.5062500  -0.2634161   1.0231723), wk =   0.0045249
        k(  221) = (   0.5000000  -0.2886751   1.0206207), wk =   0.0045249

                       cryst. coord.
        k(    1) = (   0.0000000   0.0000000   0.0000000), wk =   0.0045249
        k(    2) = (   0.0250000  -0.0000000   0.0250000), wk =   0.0045249
        k(    3) = (   0.0500000  -0.0000000   0.0500000), wk =   0.0045249
        k(    4) = (   0.0750000  -0.0000000   0.0750000), wk =   0.0045249
        k(    5) = (   0.1000000  -0.0000000   0.1000000), wk =   0.0045249
        k(    6) = (   0.1250000  -0.0000000   0.1250000), wk =   0.0045249
        k(    7) = (   0.1500000  -0.0000000   0.1500000), wk =   0.0045249
        k(    8) = (   0.1750000  -0.0000000   0.1750000), wk =   0.0045249
        k(    9) = (   0.2000000  -0.0000000   0.2000000), wk =   0.0045249
        k(   10) = (   0.2250000  -0.0000000   0.2250000), wk =   0.0045249
        k(   11) = (   0.2500000  -0.0000000   0.2500000), wk =   0.0045249
        k(   12) = (   0.2750000   0.0000000   0.2750000), wk =   0.0045249
        k(   13) = (   0.3000000  -0.0000000   0.3000000), wk =   0.0045249
        k(   14) = (   0.3250000   0.0000000   0.3250000), wk =   0.0045249
        k(   15) = (   0.3500000  -0.0000000   0.3500000), wk =   0.0045249
        k(   16) = (   0.3750000   0.0000000   0.3750000), wk =   0.0045249
        k(   17) = (   0.4000000  -0.0000000   0.4000000), wk =   0.0045249
        k(   18) = (   0.4250000   0.0000000   0.4250000), wk =   0.0045249
        k(   19) = (   0.4500000  -0.0000000   0.4500000), wk =   0.0045249
        k(   20) = (   0.4750000   0.0000000   0.4750000), wk =   0.0045249
        k(   21) = (   0.5000000  -0.0000000   0.5000000), wk =   0.0045249
        k(   22) = (   0.5000000   0.0125000   0.5125000), wk =   0.0045249
        k(   23) = (   0.5000000   0.0250000   0.5250000), wk =   0.0045249
        k(   24) = (   0.5000000   0.0375000   0.5375000), wk =   0.0045249
        k(   25) = (   0.5000000   0.0500000   0.5500000), wk =   0.0045249
        k(   26) = (   0.5000000   0.0625000   0.5625000), wk =   0.0045249
        k(   27) = (   0.5000000   0.0750000   0.5750000), wk =   0.0045249
        k(   28) = (   0.5000000   0.0875000   0.5875000), wk =   0.0045249
        k(   29) = (   0.5000000   0.1000000   0.6000000), wk =   0.0045249
        k(   30) = (   0.5000000   0.1125000   0.6125000), wk =   0.0045249
        k(   31) = (   0.5000000   0.1250000   0.6250000), wk =   0.0045249
        k(   32) = (   0.5000000   0.1375000   0.6375000), wk =   0.0045249
        k(   33) = (   0.5000000   0.1500000   0.6500000), wk =   0.0045249
        k(   34) = (   0.5000000   0.1625000   0.6625000), wk =   0.0045249
        k(   35) = (   0.5000000   0.1750000   0.6750000), wk =   0.0045249
        k(   36) = (   0.5000000   0.1875000   0.6875000), wk =   0.0045249
        k(   37) = (   0.5000000   0.2000000   0.7000000), wk =   0.0045249
        k(   38) = (   0.5000000   0.2125000   0.7125000), wk =   0.0045249
        k(   39) = (   0.5000000   0.2250000   0.7250000), wk =   0.0045249
        k(   40) = (   0.5000000   0.2375000   0.7375000), wk =   0.0045249
        k(   41) = (   0.5000000   0.2500000   0.7500000), wk =   0.0045249
        k(   42) = (   0.4937500   0.2562500   0.7500000), wk =   0.0045249
        k(   43) = (   0.4875000   0.2625000   0.7500000), wk =   0.0045249
        k(   44) = (   0.4812500   0.2687500   0.7500000), wk =   0.0045249
        k(   45) = (   0.4750000   0.2750000   0.7500000), wk =   0.0045249
        k(   46) = (   0.4687500   0.2812500   0.7500000), wk =   0.0045249
        k(   47) = (   0.4625000   0.2875000   0.7500000), wk =   0.0045249
        k(   48) = (   0.4562500   0.2937500   0.7500000), wk =   0.0045249
        k(   49) = (   0.4500000   0.3000000   0.7500000), wk =   0.0045249
        k(   50) = (   0.4437500   0.3062500   0.7500000), wk =   0.0045249
        k(   51) = (   0.4375000   0.3125000   0.7500000), wk =   0.0045249
        k(   52) = (   0.4312500   0.3187500   0.7500000), wk =   0.0045249
        k(   53) = (   0.4250000   0.3250000   0.7500000), wk =   0.0045249
        k(   54) = (   0.4187500   0.3312500   0.7500000), wk =   0.0045249
        k(   55) = (   0.4125000   0.3375000   0.7500000), wk =   0.0045249
        k(   56) = (   0.4062500   0.3437500   0.7500000), wk =   0.0045249
        k(   57) = (   0.4000000   0.3500000   0.7500000), wk =   0.0045249
        k(   58) = (   0.3937500   0.3562500   0.7500000), wk =   0.0045249
        k(   59) = (   0.3875000   0.3625000   0.7500000), wk =   0.0045249
        k(   60) = (   0.3812500   0.3687500   0.7500000), wk =   0.0045249
        k(   61) = (   0.3750000   0.3750000   0.7500000), wk =   0.0045249
        k(   62) = (   0.3562500   0.3562500   0.7125000), wk =   0.0045249
        k(   63) = (   0.3375000   0.3375000   0.6750000), wk =   0.0045249
        k(   64) = (   0.3187500   0.3187500   0.6375000), wk =   0.0045249
        k(   65) = (   0.3000000   0.3000000   0.6000000), wk =   0.0045249
        k(   66) = (   0.2812500   0.2812500   0.5625000), wk =   0.0045249
        k(   67) = (   0.2625000   0.2625000   0.5250000), wk =   0.0045249
        k(   68) = (   0.2437500   0.2437500   0.4875000), wk =   0.0045249
        k(   69) = (   0.2250000   0.2250000   0.4500000), wk =   0.0045249
        k(   70) = (   0.2062500   0.2062500   0.4125000), wk =   0.0045249
        k(   71) = (   0.1875000   0.1875000   0.3750000), wk =   0.0045249
        k(   72) = (   0.1687500   0.1687500   0.3375000), wk =   0.0045249
        k(   73) = (   0.1500000   0.1500000   0.3000000), wk =   0.0045249
        k(   74) = (   0.1312500   0.1312500   0.2625000), wk =   0.0045249
        k(   75) = (   0.1125000   0.1125000   0.2250000), wk =   0.0045249
        k(   76) = (   0.0937500   0.0937500   0.1875000), wk =   0.0045249
        k(   77) = (   0.0750000   0.0750000   0.1500000), wk =   0.0045249
        k(   78) = (   0.0562500   0.0562500   0.1125000), wk =   0.0045249
        k(   79) = (   0.0375000   0.0375000   0.0750000), wk =   0.0045249
        k(   80) = (   0.0187500   0.0187500   0.0375000), wk =   0.0045249
        k(   81) = (   0.0000000   0.0000000   0.0000000), wk =   0.0045249
        k(   82) = (   0.0250000   0.0250000   0.0250000), wk =   0.0045249
        k(   83) = (   0.0500000   0.0500000   0.0500000), wk =   0.0045249
        k(   84) = (   0.0750000   0.0750000   0.0750000), wk =   0.0045249
        k(   85) = (   0.1000000   0.1000000   0.1000000), wk =   0.0045249
        k(   86) = (   0.1250000   0.1250000   0.1250000), wk =   0.0045249
        k(   87) = (   0.1500000   0.1500000   0.1500000), wk =   0.0045249
        k(   88) = (   0.1750000   0.1750000   0.1750000), wk =   0.0045249
        k(   89) = (   0.2000000   0.2000000   0.2000000), wk =   0.0045249
        k(   90) = (   0.2250000   0.2250000   0.2250000), wk =   0.0045249
        k(   91) = (   0.2500000   0.2500000   0.2500000), wk =   0.0045249
        k(   92) = (   0.2750000   0.2750000   0.2750000), wk =   0.0045249
        k(   93) = (   0.3000000   0.3000000   0.3000000), wk =   0.0045249
        k(   94) = (   0.3250000   0.3250000   0.3250000), wk =   0.0045249
        k(   95) = (   0.3500000   0.3500000   0.3500000), wk =   0.0045249
        k(   96) = (   0.3750000   0.3750000   0.3750000), wk =   0.0045249
        k(   97) = (   0.4000000   0.4000000   0.4000000), wk =   0.0045249
        k(   98) = (   0.4250000   0.4250000   0.4250000), wk =   0.0045249
        k(   99) = (   0.4500000   0.4500000   0.4500000), wk =   0.0045249
        k(  100) = (   0.4750000   0.4750000   0.4750000), wk =   0.0045249
        k(  101) = (   0.5000000   0.5000000   0.5000000), wk =   0.0045249
        k(  102) = (   0.5062500   0.4875000   0.5062500), wk =   0.0045249
        k(  103) = (   0.5125000   0.4750000   0.5125000), wk =   0.0045249
        k(  104) = (   0.5187500   0.4625000   0.5187500), wk =   0.0045249
        k(  105) = (   0.5250000   0.4500000   0.5250000), wk =   0.0045249
        k(  106) = (   0.5312500   0.4375000   0.5312500), wk =   0.0045249
        k(  107) = (   0.5375000   0.4250000   0.5375000), wk =   0.0045249
        k(  108) = (   0.5437500   0.4125000   0.5437500), wk =   0.0045249
        k(  109) = (   0.5500000   0.4000000   0.5500000), wk =   0.0045249
        k(  110) = (   0.5562500   0.3875000   0.5562500), wk =   0.0045249
        k(  111) = (   0.5625000   0.3750000   0.5625000), wk =   0.0045249
        k(  112) = (   0.5687500   0.3625000   0.5687500), wk =   0.0045249
        k(  113) = (   0.5750000   0.3500000   0.5750000), wk =   0.0045249
        k(  114) = (   0.5812500   0.3375000   0.5812500), wk =   0.0045249
        k(  115) = (   0.5875000   0.3250000   0.5875000), wk =   0.0045249
        k(  116) = (   0.5937500   0.3125000   0.5937500), wk =   0.0045249
        k(  117) = (   0.6000000   0.3000000   0.6000000), wk =   0.0045249
        k(  118) = (   0.6062500   0.2875000   0.6062500), wk =   0.0045249
        k(  119) = (   0.6125000   0.2750000   0.6125000), wk =   0.0045249
        k(  120) = (   0.6187500   0.2625000   0.6187500), wk =   0.0045249
        k(  121) = (   0.6250000   0.2500000   0.6250000), wk =   0.0045249
        k(  122) = (   0.6187500   0.2500000   0.6312500), wk =   0.0045249
        k(  123) = (   0.6125000   0.2500000   0.6375000), wk =   0.0045249
        k(  124) = (   0.6062500   0.2500000   0.6437500), wk =   0.0045249
        k(  125) = (   0.6000000   0.2500000   0.6500000), wk =   0.0045249
        k(  126) = (   0.5937500   0.2500000   0.6562500), wk =   0.0045249
        k(  127) = (   0.5875000   0.2500000   0.6625000), wk =   0.0045249
        k(  128) = (   0.5812500   0.2500000   0.6687500), wk =   0.0045249
        k(  129) = (   0.5750000   0.2500000   0.6750000), wk =   0.0045249
        k(  130) = (   0.5687500   0.2500000   0.6812500), wk =   0.0045249
        k(  131) = (   0.5625000   0.2500000   0.6875000), wk =   0.0045249
        k(  132) = (   0.5562500   0.2500000   0.6937500), wk =   0.0045249
        k(  133) = (   0.5500000   0.2500000   0.7000000), wk =   0.0045249
        k(  134) = (   0.5437500   0.2500000   0.7062500), wk =   0.0045249
        k(  135) = (   0.5375000   0.2500000   0.7125000), wk =   0.0045249
        k(  136) = (   0.5312500   0.2500000   0.7187500), wk =   0.0045249
        k(  137) = (   0.5250000   0.2500000   0.7250000), wk =   0.0045249
        k(  138) = (   0.5187500   0.2500000   0.7312500), wk =   0.0045249
        k(  139) = (   0.5125000   0.2500000   0.7375000), wk =   0.0045249
        k(  140) = (   0.5062500   0.2500000   0.7437500), wk =   0.0045249
        k(  141) = (   0.5000000   0.2500000   0.7500000), wk =   0.0045249
        k(  142) = (   0.5000000   0.2625000   0.7375000), wk =   0.0045249
        k(  143) = (   0.5000000   0.2750000   0.7250000), wk =   0.0045249
        k(  144) = (   0.5000000   0.2875000   0.7125000), wk =   0.0045249
        k(  145) = (   0.5000000   0.3000000   0.7000000), wk =   0.0045249
        k(  146) = (   0.5000000   0.3125000   0.6875000), wk =   0.0045249
        k(  147) = (   0.5000000   0.3250000   0.6750000), wk =   0.0045249
        k(  148) = (   0.5000000   0.3375000   0.6625000), wk =   0.0045249
        k(  149) = (   0.5000000   0.3500000   0.6500000), wk =   0.0045249
        k(  150) = (   0.5000000   0.3625000   0.6375000), wk =   0.0045249
        k(  151) = (   0.5000000   0.3750000   0.6250000), wk =   0.0045249
        k(  152) = (   0.5000000   0.3875000   0.6125000), wk =   0.0045249
        k(  153) = (   0.5000000   0.4000000   0.6000000), wk =   0.0045249
        k(  154) = (   0.5000000   0.4125000   0.5875000), wk =   0.0045249
        k(  155) = (   0.5000000   0.4250000   0.5750000), wk =   0.0045249
        k(  156) = (   0.5000000   0.4375000   0.5625000), wk =   0.0045249
        k(  157) = (   0.5000000   0.4500000   0.5500000), wk =   0.0045249
        k(  158) = (   0.5000000   0.4625000   0.5375000), wk =   0.0045249
        k(  159) = (   0.5000000   0.4750000   0.5250000), wk =   0.0045249
        k(  160) = (   0.5000000   0.4875000   0.5125000), wk =   0.0045249
        k(  161) = (   0.5000000   0.5000000   0.5000000), wk =   0.0045249
        k(  162) = (   0.4937500   0.4937500   0.5125000), wk =   0.0045249
        k(  163) = (   0.4875000   0.4875000   0.5250000), wk =   0.0045249
        k(  164) = (   0.4812500   0.4812500   0.5375000), wk =   0.0045249
        k(  165) = (   0.4750000   0.4750000   0.5500000), wk =   0.0045249
        k(  166) = (   0.4687500   0.4687500   0.5625000), wk =   0.0045249
        k(  167) = (   0.4625000   0.4625000   0.5750000), wk =   0.0045249
        k(  168) = (   0.4562500   0.4562500   0.5875000), wk =   0.0045249
        k(  169) = (   0.4500000   0.4500000   0.6000000), wk =   0.0045249
        k(  170) = (   0.4437500   0.4437500   0.6125000), wk =   0.0045249
        k(  171) = (   0.4375000   0.4375000   0.6250000), wk =   0.0045249
        k(  172) = (   0.4312500   0.4312500   0.6375000), wk =   0.0045249
        k(  173) = (   0.4250000   0.4250000   0.6500000), wk =   0.0045249
        k(  174) = (   0.4187500   0.4187500   0.6625000), wk =   0.0045249
        k(  175) = (   0.4125000   0.4125000   0.6750000), wk =   0.0045249
        k(  176) = (   0.4062500   0.4062500   0.6875000), wk =   0.0045249
        k(  177) = (   0.4000000   0.4000000   0.7000000), wk =   0.0045249
        k(  178) = (   0.3937500   0.3937500   0.7125000), wk =   0.0045249
        k(  179) = (   0.3875000   0.3875000   0.7250000), wk =   0.0045249
        k(  180) = (   0.3812500   0.3812500   0.7375000), wk =   0.0045249
        k(  181) = (   0.3750000   0.3750000   0.7500000), wk =   0.0045249
        k(  182) = (   0.3875000   0.3687500   0.7437500), wk =   0.0045249
        k(  183) = (   0.4000000   0.3625000   0.7375000), wk =   0.0045249
        k(  184) = (   0.4125000   0.3562500   0.7312500), wk =   0.0045249
        k(  185) = (   0.4250000   0.3500000   0.7250000), wk =   0.0045249
        k(  186) = (   0.4375000   0.3437500   0.7187500), wk =   0.0045249
        k(  187) = (   0.4500000   0.3375000   0.7125000), wk =   0.0045249
        k(  188) = (   0.4625000   0.3312500   0.7062500), wk =   0.0045249
        k(  189) = (   0.4750000   0.3250000   0.7000000), wk =   0.0045249
        k(  190) = (   0.4875000   0.3187500   0.6937500), wk =   0.0045249
        k(  191) = (   0.5000000   0.3125000   0.6875000), wk =   0.0045249
        k(  192) = (   0.5125000   0.3062500   0.6812500), wk =   0.0045249
        k(  193) = (   0.5250000   0.3000000   0.6750000), wk =   0.0045249
        k(  194) = (   0.5375000   0.2937500   0.6687500), wk =   0.0045249
        k(  195) = (   0.5500000   0.2875000   0.6625000), wk =   0.0045249
        k(  196) = (   0.5625000   0.2812500   0.6562500), wk =   0.0045249
        k(  197) = (   0.5750000   0.2750000   0.6500000), wk =   0.0045249
        k(  198) = (   0.5875000   0.2687500   0.6437500), wk =   0.0045249
        k(  199) = (   0.6000000   0.2625000   0.6375000), wk =   0.0045249
        k(  200) = (   0.6125000   0.2562500   0.6312500), wk =   0.0045249
        k(  201) = (   0.6250000   0.2500000   0.6250000), wk =   0.0045249
        k(  202) = (   0.6187500   0.2375000   0.6187500), wk =   0.0045249
        k(  203) = (   0.6125000   0.2250000   0.6125000), wk =   0.0045249
        k(  204) = (   0.6062500   0.2125000   0.6062500), wk =   0.0045249
        k(  205) = (   0.6000000   0.2000000   0.6000000), wk =   0.0045249
        k(  206) = (   0.5937500   0.1875000   0.5937500), wk =   0.0045249
        k(  207) = (   0.5875000   0.1750000   0.5875000), wk =   0.0045249
        k(  208) = (   0.5812500   0.1625000   0.5812500), wk =   0.0045249
        k(  209) = (   0.5750000   0.1500000   0.5750000), wk =   0.0045249
        k(  210) = (   0.5687500   0.1375000   0.5687500), wk =   0.0045249
        k(  211) = (   0.5625000   0.1250000   0.5625000), wk =   0.0045249
        k(  212) = (   0.5562500   0.1125000   0.5562500), wk =   0.0045249
        k(  213) = (   0.5500000   0.1000000   0.5500000), wk =   0.0045249
        k(  214) = (   0.5437500   0.0875000   0.5437500), wk =   0.0045249
        k(  215) = (   0.5375000   0.0750000   0.5375000), wk =   0.0045249
        k(  216) = (   0.5312500   0.0625000   0.5312500), wk =   0.0045249
        k(  217) = (   0.5250000   0.0500000   0.5250000), wk =   0.0045249
        k(  218) = (   0.5187500   0.0375000   0.5187500), wk =   0.0045249
        k(  219) = (   0.5125000   0.0250000   0.5125000), wk =   0.0045249
        k(  220) = (   0.5062500   0.0125000   0.5062500), wk =   0.0045249
        k(  221) = (   0.5000000  -0.0000000   0.5000000), wk =   0.0045249

     Dense  grid:     1779 G-vectors     FFT dimensions: (  27,  15,  15)

     Dynamical RAM for                 wfc:       0.06 MB

     Dynamical RAM for     wfc (w. buffer):       0.06 MB

     Dynamical RAM for             U proj.:       0.03 MB

     Dynamical RAM for  U proj. (w. buff.):       0.03 MB

     Dynamical RAM for           str. fact:       0.05 MB

     Dynamical RAM for           local pot:       0.00 MB

     Dynamical RAM for          nlocal pot:       0.12 MB

     Dynamical RAM for                qrad:       1.44 MB

     Dynamical RAM for          rho,v,vnew:       0.44 MB

     Dynamical RAM for           G-vectors:       0.12 MB

     Dynamical RAM for          h,s,v(r/c):       0.06 MB

     Dynamical RAM for          <psi|beta>:       0.01 MB

     Dynamical RAM for                 psi:       0.12 MB

     Dynamical RAM for                hpsi:       0.12 MB

     Dynamical RAM for                spsi:       0.12 MB

     Dynamical RAM for      wfcinit/wfcrot:       0.13 MB

     Dynamical RAM for           addusdens:       1.31 MB

     Estimated static dynamical RAM per process >       2.62 MB

     Estimated max dynamical RAM per process >       3.94 MB

     Estimated total dynamical RAM >      15.75 MB

     Check: negative core charge=   -0.000061
     Generating pointlists ...
     new r_m :   0.2062 (alat units)  1.9324 (a.u.) for type    1
     new r_m :   0.2062 (alat units)  1.9324 (a.u.) for type    2

     The potential is recalculated from file :
     /home/ponet/.julia/environments/DFControlDEV/Demo/Ni/outputs/Ni.save/charge-density

 --- in v_hubbard ---
Hubbard energy    0.4319
 -------
     Number of +U iterations with fixed ns =  0
     Starting occupations:
 --- enter write_ns ---
 LDA+U parameters:
U( 1)     =  4.00000000
U( 2)     =  4.00000000
atom    1   Tr[ns(na)] (up, down, total) =   4.19444  3.96246  8.15690
   spin  1
    eigenvalues: 
  0.810  0.815  0.856  0.856  0.858
    eigenvectors:
  0.000  0.833  0.167  0.000  0.001
  0.035  0.121  0.613  0.215  0.017
  0.105  0.040  0.204  0.645  0.006
  0.645  0.002  0.004  0.105  0.244
  0.215  0.005  0.012  0.035  0.733
    occupations:
  0.822 -0.013  0.007 -0.002  0.003
 -0.013  0.849  0.000  0.006  0.005
  0.007  0.000  0.849  0.012  0.006
 -0.002  0.006  0.012  0.827 -0.018
  0.003  0.005  0.006 -0.018  0.848
   spin  2
    eigenvalues: 
  0.655  0.789  0.814  0.852  0.853
    eigenvectors:
  0.076  0.679  0.000  0.245  0.000
  0.193  0.073  0.208  0.484  0.042
  0.064  0.024  0.624  0.161  0.126
  0.167  0.056  0.126  0.027  0.624
  0.500  0.168  0.042  0.082  0.208
    occupations:
  0.794  0.038 -0.022  0.010 -0.017
  0.038  0.801  0.011 -0.025  0.058
 -0.022  0.011  0.814  0.029 -0.025
  0.010 -0.025  0.029  0.811  0.061
 -0.017  0.058 -0.025  0.061  0.741
atomic mag. moment =   0.23198
atom    2   Tr[ns(na)] (up, down, total) =   3.96570  4.19075  8.15645
   spin  1
    eigenvalues: 
  0.654  0.791  0.816  0.852  0.853
    eigenvectors:
  0.069  0.682  0.000  0.249  0.000
  0.193  0.078  0.210  0.479  0.040
  0.064  0.026  0.629  0.160  0.121
  0.168  0.054  0.121  0.028  0.629
  0.505  0.161  0.040  0.084  0.210
    occupations:
  0.796  0.037 -0.021  0.010 -0.017
  0.037  0.801  0.012 -0.026  0.058
 -0.021  0.012  0.815  0.029 -0.026
  0.010 -0.026  0.029  0.812  0.061
 -0.017  0.058 -0.026  0.061  0.741
   spin  2
    eigenvalues: 
  0.808  0.814  0.855  0.855  0.858
    eigenvectors:
  0.000  0.846  0.154  0.000  0.000
  0.036  0.112  0.620  0.214  0.018
  0.109  0.037  0.207  0.641  0.006
  0.641  0.001  0.005  0.109  0.244
  0.214  0.004  0.015  0.036  0.732
    occupations:
  0.820 -0.013  0.007 -0.001  0.002
 -0.013  0.849 -0.000  0.006  0.005
  0.007 -0.000  0.849  0.013  0.006
 -0.001  0.006  0.013  0.826 -0.018
  0.002  0.005  0.006 -0.018  0.847
atomic mag. moment =  -0.22504
N of occupied +U levels =   16.313354
 --- exit write_ns ---
 Atomic wfc used for LDA+U Projector are NOT orthogonalized
     Starting wfcs are   18 randomized atomic wfcs
     Checking if some PAW data can be deallocated... 
       PAW data deallocated on    2 nodes for type:  1
       PAW data deallocated on    2 nodes for type:  2

     Band Structure Calculation
     Davidson diagonalization with overlap

     Computing kpt #:     1  of   111 on this pool
     total cpu time spent up to now is        1.0 secs

     Computing kpt #:     2  of   111 on this pool
     total cpu time spent up to now is        1.1 secs

     Computing kpt #:     3  of   111 on this pool
     total cpu time spent up to now is        1.1 secs

     Computing kpt #:     4  of   111 on this pool
     total cpu time spent up to now is        1.2 secs

     Computing kpt #:     5  of   111 on this pool
     total cpu time spent up to now is        1.3 secs

     Computing kpt #:     6  of   111 on this pool
     total cpu time spent up to now is        1.4 secs

     Computing kpt #:     7  of   111 on this pool
     total cpu time spent up to now is        1.4 secs

     Computing kpt #:     8  of   111 on this pool
     total cpu time spent up to now is        1.5 secs

     Computing kpt #:     9  of   111 on this pool
     total cpu time spent up to now is        1.5 secs

     Computing kpt #:    10  of   111 on this pool
     total cpu time spent up to now is        1.6 secs

     Computing kpt #:    11  of   111 on this pool
     total cpu time spent up to now is        1.6 secs

     Computing kpt #:    12  of   111 on this pool
     total cpu time spent up to now is        1.7 secs

     Computing kpt #:    13  of   111 on this pool
     total cpu time spent up to now is        1.7 secs

     Computing kpt #:    14  of   111 on this pool
     total cpu time spent up to now is        1.8 secs

     Computing kpt #:    15  of   111 on this pool
     total cpu time spent up to now is        1.9 secs

     Computing kpt #:    16  of   111 on this pool
     total cpu time spent up to now is        1.9 secs

     Computing kpt #:    17  of   111 on this pool
     total cpu time spent up to now is        2.0 secs

     Computing kpt #:    18  of   111 on this pool
     total cpu time spent up to now is        2.0 secs

     Computing kpt #:    19  of   111 on this pool
     total cpu time spent up to now is        2.1 secs

     Computing kpt #:    20  of   111 on this pool
     total cpu time spent up to now is        2.1 secs

     Computing kpt #:    21  of   111 on this pool
     total cpu time spent up to now is        2.1 secs

     Computing kpt #:    22  of   111 on this pool
     total cpu time spent up to now is        2.2 secs

     Computing kpt #:    23  of   111 on this pool
     total cpu time spent up to now is        2.2 secs

     Computing kpt #:    24  of   111 on this pool
     total cpu time spent up to now is        2.3 secs

     Computing kpt #:    25  of   111 on this pool
     total cpu time spent up to now is        2.3 secs

     Computing kpt #:    26  of   111 on this pool
     total cpu time spent up to now is        2.3 secs

     Computing kpt #:    27  of   111 on this pool
     total cpu time spent up to now is        2.4 secs

     Computing kpt #:    28  of   111 on this pool
     total cpu time spent up to now is        2.4 secs

     Computing kpt #:    29  of   111 on this pool
     total cpu time spent up to now is        2.5 secs

     Computing kpt #:    30  of   111 on this pool
     total cpu time spent up to now is        2.5 secs

     Computing kpt #:    31  of   111 on this pool
     total cpu time spent up to now is        2.6 secs

     Computing kpt #:    32  of   111 on this pool
     total cpu time spent up to now is        2.6 secs

     Computing kpt #:    33  of   111 on this pool
     total cpu time spent up to now is        2.7 secs

     Computing kpt #:    34  of   111 on this pool
     total cpu time spent up to now is        2.7 secs

     Computing kpt #:    35  of   111 on this pool
     total cpu time spent up to now is        2.7 secs

     Computing kpt #:    36  of   111 on this pool
     total cpu time spent up to now is        2.8 secs

     Computing kpt #:    37  of   111 on this pool
     total cpu time spent up to now is        2.8 secs

     Computing kpt #:    38  of   111 on this pool
     total cpu time spent up to now is        2.9 secs

     Computing kpt #:    39  of   111 on this pool
     total cpu time spent up to now is        2.9 secs

     Computing kpt #:    40  of   111 on this pool
     total cpu time spent up to now is        3.0 secs

     Computing kpt #:    41  of   111 on this pool
     total cpu time spent up to now is        3.0 secs

     Computing kpt #:    42  of   111 on this pool
     total cpu time spent up to now is        3.1 secs

     Computing kpt #:    43  of   111 on this pool
     total cpu time spent up to now is        3.1 secs

     Computing kpt #:    44  of   111 on this pool
     total cpu time spent up to now is        3.2 secs

     Computing kpt #:    45  of   111 on this pool
     total cpu time spent up to now is        3.2 secs

     Computing kpt #:    46  of   111 on this pool
     total cpu time spent up to now is        3.3 secs

     Computing kpt #:    47  of   111 on this pool
     total cpu time spent up to now is        3.3 secs

     Computing kpt #:    48  of   111 on this pool
     total cpu time spent up to now is        3.4 secs

     Computing kpt #:    49  of   111 on this pool
     total cpu time spent up to now is        3.4 secs

     Computing kpt #:    50  of   111 on this pool
     total cpu time spent up to now is        3.5 secs

     Computing kpt #:    51  of   111 on this pool
     total cpu time spent up to now is        3.5 secs

     Computing kpt #:    52  of   111 on this pool
     total cpu time spent up to now is        3.6 secs

     Computing kpt #:    53  of   111 on this pool
     total cpu time spent up to now is        3.6 secs

     Computing kpt #:    54  of   111 on this pool
     total cpu time spent up to now is        3.7 secs

     Computing kpt #:    55  of   111 on this pool
     total cpu time spent up to now is        3.7 secs

     Computing kpt #:    56  of   111 on this pool
     total cpu time spent up to now is        3.7 secs

     Computing kpt #:    57  of   111 on this pool
     total cpu time spent up to now is        3.8 secs

     Computing kpt #:    58  of   111 on this pool
     total cpu time spent up to now is        3.8 secs

     Computing kpt #:    59  of   111 on this pool
     total cpu time spent up to now is        3.9 secs

     Computing kpt #:    60  of   111 on this pool
     total cpu time spent up to now is        3.9 secs

     Computing kpt #:    61  of   111 on this pool
     total cpu time spent up to now is        4.0 secs

     Computing kpt #:    62  of   111 on this pool
     total cpu time spent up to now is        4.0 secs

     Computing kpt #:    63  of   111 on this pool
     total cpu time spent up to now is        4.1 secs

     Computing kpt #:    64  of   111 on this pool
     total cpu time spent up to now is        4.1 secs

     Computing kpt #:    65  of   111 on this pool
     total cpu time spent up to now is        4.2 secs

     Computing kpt #:    66  of   111 on this pool
     total cpu time spent up to now is        4.2 secs

     Computing kpt #:    67  of   111 on this pool
     total cpu time spent up to now is        4.3 secs

     Computing kpt #:    68  of   111 on this pool
     total cpu time spent up to now is        4.3 secs

     Computing kpt #:    69  of   111 on this pool
     total cpu time spent up to now is        4.4 secs

     Computing kpt #:    70  of   111 on this pool
     total cpu time spent up to now is        4.4 secs

     Computing kpt #:    71  of   111 on this pool
     total cpu time spent up to now is        4.5 secs

     Computing kpt #:    72  of   111 on this pool
     total cpu time spent up to now is        4.6 secs

     Computing kpt #:    73  of   111 on this pool
     total cpu time spent up to now is        4.6 secs

     Computing kpt #:    74  of   111 on this pool
     total cpu time spent up to now is        4.7 secs

     Computing kpt #:    75  of   111 on this pool
     total cpu time spent up to now is        4.8 secs

     Computing kpt #:    76  of   111 on this pool
     total cpu time spent up to now is        4.9 secs

     Computing kpt #:    77  of   111 on this pool
     total cpu time spent up to now is        4.9 secs

     Computing kpt #:    78  of   111 on this pool
     total cpu time spent up to now is        5.0 secs

     Computing kpt #:    79  of   111 on this pool
     total cpu time spent up to now is        5.1 secs

     Computing kpt #:    80  of   111 on this pool
     total cpu time spent up to now is        5.2 secs

     Computing kpt #:    81  of   111 on this pool
     total cpu time spent up to now is        5.3 secs

     Computing kpt #:    82  of   111 on this pool
     total cpu time spent up to now is        5.3 secs

     Computing kpt #:    83  of   111 on this pool
     total cpu time spent up to now is        5.4 secs

     Computing kpt #:    84  of   111 on this pool
     total cpu time spent up to now is        5.5 secs

     Computing kpt #:    85  of   111 on this pool
     total cpu time spent up to now is        5.6 secs

     Computing kpt #:    86  of   111 on this pool
     total cpu time spent up to now is        5.6 secs

     Computing kpt #:    87  of   111 on this pool
     total cpu time spent up to now is        5.7 secs

     Computing kpt #:    88  of   111 on this pool
     total cpu time spent up to now is        5.8 secs

     Computing kpt #:    89  of   111 on this pool
     total cpu time spent up to now is        5.9 secs

     Computing kpt #:    90  of   111 on this pool
     total cpu time spent up to now is        5.9 secs

     Computing kpt #:    91  of   111 on this pool
     total cpu time spent up to now is        6.0 secs

     Computing kpt #:    92  of   111 on this pool
     total cpu time spent up to now is        6.0 secs

     Computing kpt #:    93  of   111 on this pool
     total cpu time spent up to now is        6.1 secs

     Computing kpt #:    94  of   111 on this pool
     total cpu time spent up to now is        6.2 secs

     Computing kpt #:    95  of   111 on this pool
     total cpu time spent up to now is        6.2 secs

     Computing kpt #:    96  of   111 on this pool
     total cpu time spent up to now is        6.3 secs

     Computing kpt #:    97  of   111 on this pool
     total cpu time spent up to now is        6.4 secs

     Computing kpt #:    98  of   111 on this pool
     total cpu time spent up to now is        6.4 secs

     Computing kpt #:    99  of   111 on this pool
     total cpu time spent up to now is        6.5 secs

     Computing kpt #:   100  of   111 on this pool
     total cpu time spent up to now is        6.5 secs

     Computing kpt #:   101  of   111 on this pool
     total cpu time spent up to now is        6.6 secs

     Computing kpt #:   102  of   111 on this pool
     total cpu time spent up to now is        6.6 secs

     Computing kpt #:   103  of   111 on this pool
     total cpu time spent up to now is        6.6 secs

     Computing kpt #:   104  of   111 on this pool
     total cpu time spent up to now is        6.7 secs

     Computing kpt #:   105  of   111 on this pool
     total cpu time spent up to now is        6.7 secs

     Computing kpt #:   106  of   111 on this pool
     total cpu time spent up to now is        6.8 secs

     Computing kpt #:   107  of   111 on this pool
     total cpu time spent up to now is        6.8 secs

     Computing kpt #:   108  of   111 on this pool
     total cpu time spent up to now is        6.9 secs

     Computing kpt #:   109  of   111 on this pool
     total cpu time spent up to now is        6.9 secs

     Computing kpt #:   110  of   111 on this pool
     total cpu time spent up to now is        7.0 secs

     Computing kpt #:   111  of   111 on this pool
     total cpu time spent up to now is        7.0 secs

     ethr =  5.00E-09,  avg # of iterations = 23.0

     total cpu time spent up to now is        7.0 secs

     End of band structure calculation

 ------ SPIN UP ------------


          k = 0.0000 0.0000 0.0000 (   221 PWs)   bands (ev):

     4.5130   7.4505   9.9766  10.0299  10.2325  10.3159  10.4213  11.1175
    11.1722  12.2376  12.2736  13.2307  19.6177  36.2945  37.9625  38.4689
    38.4853  41.5221

          k = 0.0250-0.0144 0.0510 (   221 PWs)   bands (ev):

     4.5355   7.4660   9.9699  10.0392  10.2423  10.3126  10.4247  11.1211
    11.1667  12.1308  12.2352  13.3955  19.6268  36.2050  37.9227  38.2219
    38.3473  41.2210

          k = 0.0500-0.0289 0.1021 (   223 PWs)   bands (ev):

     4.6027   7.5013   9.8402  10.0513  10.2286  10.2333  10.4369  11.1314
    11.1391  11.7838  12.1779  13.7131  19.6420  35.8333  37.6854  37.7896
    38.0189  40.5126

          k = 0.0750-0.0433 0.1531 (   225 PWs)   bands (ev):

     4.7136   7.5671   9.7866   9.9509  10.1941  10.1944  10.4688  11.1024
    11.1448  11.4131  12.1266  14.0813  19.6768  35.0790  37.3071  37.5118
    37.5179  39.7003

          k = 0.1000-0.0577 0.2041 (   225 PWs)   bands (ev):

     4.8666   7.6691   9.7167  10.0119  10.1466  10.2407  10.5158  11.0140
    11.1726  11.1894  12.1030  14.5098  19.7506  34.0389  36.9901  37.0000
    37.1148  38.9971

          k = 0.1250-0.0722 0.2552 (   223 PWs)   bands (ev):

     5.0591   7.8144   9.7019  10.0781  10.1539  10.3170  10.5289  10.9265
    11.1402  11.2134  12.0757  15.0446  19.9018  32.9451  36.1853  36.4664
    37.0116  38.4894

          k = 0.1500-0.0866 0.3062 (   221 PWs)   bands (ev):

     5.2882   7.9786   9.6309  10.0053  10.2845  10.4584  10.5826  10.7764
    11.0340  11.2672  12.1832  15.5284  20.0583  31.7603  35.2331  35.9396
    36.9377  38.1150

          k = 0.1750-0.1010 0.3572 (   225 PWs)   bands (ev):

     5.5519   8.1084   9.3351   9.6618  10.1822  10.4475  10.5186  10.6469
    11.1447  11.2437  12.1478  15.9575  20.1838  30.4262  34.0866  35.4090
    36.8572  37.7848

          k = 0.2000-0.1155 0.4082 (   225 PWs)   bands (ev):

     5.8416   8.2706   9.2198   9.5613  10.2369  10.2441  10.6134  10.6539
    11.1807  11.3081  12.1143  16.3998  20.3976  29.2225  33.0349  34.9008
    36.7873  37.1584

          k = 0.2250-0.1299 0.4593 (   221 PWs)   bands (ev):

     6.1540   8.4365   9.1122   9.5328  10.0719  10.3874  10.7270  10.8877
    11.3202  11.6398  12.0870  16.8318  20.6551  28.0537  32.0604  34.4211
    36.5675  36.7168

          k = 0.2500-0.1443 0.5103 (   220 PWs)   bands (ev):

     6.4868   8.5302   9.1145   9.4682  10.0355  10.4084  10.6176  10.8887
    11.5885  11.6386  12.1068  17.2562  20.9863  27.0480  31.0865  33.9855
    35.9285  36.6649

          k = 0.2750-0.1588 0.5613 (   220 PWs)   bands (ev):

     6.8159   8.6044   9.0163   9.3832   9.9454  10.4511  10.5777  10.9836
    11.7046  11.7570  12.1012  17.6648  21.2832  26.0192  30.0664  33.5747
    35.3390  36.3948

          k = 0.3000-0.1732 0.6124 (   219 PWs)   bands (ev):

     7.1241   8.6342   8.9470   9.3062   9.8980  10.5106  10.5469  11.0754
    11.9359  11.9475  12.1396  18.0651  21.5132  25.1637  29.0708  33.2058
    34.8235  35.8910

          k = 0.3250-0.1876 0.6634 (   215 PWs)   bands (ev):

     7.4085   8.6471   8.9118   9.3931   9.9371  10.5710  10.6073  11.2498
    12.0782  12.2240  12.3546  18.4619  21.5724  24.6480  28.1954  32.9057
    34.3044  35.2656

          k = 0.3500-0.2021 0.7144 (   216 PWs)   bands (ev):

     7.6086   8.6250   8.8381   9.2851   9.8419  10.5564  10.5830  11.5604
    12.1086  12.3906  12.4335  18.7805  21.2215  24.6371  27.2400  32.6909
    33.7997  34.3492

          k = 0.3750-0.2165 0.7655 (   216 PWs)   bands (ev):

     7.7750   8.6063   8.8070   9.1867   9.8020  10.6202  10.6794  11.5680
    12.1468  12.4551  12.8117  19.0665  20.6823  24.9948  26.3327  32.4606
    33.3740  33.4294

          k = 0.4000-0.2309 0.8165 (   218 PWs)   bands (ev):

     7.8708   8.4798   8.7807   9.1535   9.7658  10.7500  10.8650  11.2576
    12.1339  12.4433  13.2685  18.9560  20.3822  25.4660  25.5399  32.2281
    32.4834  33.0595

          k = 0.4250-0.2454 0.8675 (   219 PWs)   bands (ev):

     7.9079   8.4786   8.7770   9.0312   9.6797  10.8136  10.8899  11.2215
    12.1848  12.4983  13.8077  18.3242  20.6710  24.6406  26.2067  31.4223
    32.1129  32.7350

          k = 0.4500-0.2598 0.9186 (   219 PWs)   bands (ev):

     7.9303   8.4774   8.7928   8.9474   9.6905  10.8910  10.9189  11.1837
    12.2248  12.5396  14.4231  17.5326  21.1734  23.8451  26.9900  30.4465
    32.0591  32.4712

          k = 0.4750-0.2742 0.9696 (   218 PWs)   bands (ev):

     7.9795   8.5000   8.8251   8.9264   9.7076  10.9399  10.9506  11.1484
    12.2496  12.5652  15.1551  16.7319  21.7664  23.0970  27.8330  29.5707
    32.0676  32.2713

          k = 0.5000-0.2887 1.0206 (   220 PWs)   bands (ev):

     7.9708   8.4949   8.8112   8.8855   9.6259  10.8727  10.9509  11.0674
    12.2466  12.5674  15.7553  16.0644  22.3878  22.3961  28.6231  28.6553
    32.1036  32.1570

          k = 0.5000-0.2598 1.0410 (   219 PWs)   bands (ev):

     7.9757   8.4955   8.8039   8.9083   9.6748  10.8848  10.9432  11.1559
    12.2533  12.5669  15.7112  16.1277  22.0069  22.8107  28.5696  28.7590
    31.8573  32.2756

          k = 0.5000-0.2309 1.0614 (   218 PWs)   bands (ev):

     7.9823   8.4943   8.7726   8.9491   9.7414  10.8894  10.9615  11.2338
    12.2568  12.5566  15.6229  16.2524  21.6438  23.2472  28.5155  28.8893
    31.4826  32.2845

          k = 0.5000-0.2021 1.0819 (   217 PWs)   bands (ev):

     7.9579   8.5046   8.7214   8.9945   9.7887  10.8496  10.9625  11.3962
    12.3010  12.5777  15.5212  16.3951  21.3147  23.6828  28.4106  29.0616
    31.0148  32.1872

          k = 0.5000-0.1732 1.1023 (   217 PWs)   bands (ev):

     7.9507   8.4994   8.6776   9.0405   9.8188  10.8139  10.9468  11.4695
    12.3057  12.5467  15.4175  16.5422  21.0034  24.1380  28.3322  29.2163
    30.5099  32.0191

          k = 0.5000-0.1443 1.1227 (   218 PWs)   bands (ev):

     7.9448   8.4926   8.6357   9.0663   9.8499  10.7111  10.9008  11.5348
    12.2822  12.4709  15.3247  16.6838  20.7165  24.6080  28.2623  29.3677
    29.9848  31.7887

          k = 0.5000-0.1155 1.1431 (   220 PWs)   bands (ev):

     7.9097   8.4536   8.5563   9.0791   9.8778  10.6055  10.8306  11.5954
    12.2747  12.3926  15.2429  16.8138  20.4568  25.0701  28.1827  29.4261
    29.5282  31.5078

          k = 0.5000-0.0866 1.1635 (   218 PWs)   bands (ev):

     7.9539   8.4518   8.5096   9.1321  10.0088  10.5936  10.8266  11.7292
    12.3115  12.4074  15.1725  16.9865  20.3126  25.5077  28.1198  28.9265
    29.7381  31.2913

          k = 0.5000-0.0577 1.1839 (   219 PWs)   bands (ev):

     7.9614   8.4489   8.4894   9.0959  10.0148  10.5238  10.8152  11.7594
    12.2871  12.3383  15.1260  17.0802  20.1053  26.0184  28.0104  28.5305
    29.8703  31.0352

          k = 0.5000-0.0289 1.2043 (   219 PWs)   bands (ev):

     7.9799   8.4340   8.5091   9.1141  10.0535  10.4425  10.7367  11.7809
    12.2292  12.4273  15.1149  17.1420  19.9929  26.4919  27.7107  28.3479
    30.0043  30.8477

          k = 0.5000 0.0000 1.2247 (   219 PWs)   bands (ev):

     7.9778   8.4195   8.5088   9.1224  10.0879  10.4514  10.6895  11.8081
    12.1601  12.4798  15.1043  17.1619  19.9591  26.7779  27.4432  28.3151
    30.0743  30.7671

          k = 0.5000 0.0289 1.2452 (   219 PWs)   bands (ev):

     7.9807   8.3955   8.5245   9.1265  10.1147  10.4703  10.6423  11.8288
    12.0822  12.5465  15.1116  17.1355  19.9961  26.5002  27.6923  28.3584
    30.0049  30.8454

          k = 0.5000 0.0577 1.2656 (   219 PWs)   bands (ev):

     7.9545   8.3837   8.5124   9.1284  10.1404  10.5913  10.6094  11.8253
    12.0193  12.5811  15.1181  17.0673  20.1114  26.0262  27.9848  28.5490
    29.8708  31.0314

          k = 0.5000 0.0866 1.2860 (   218 PWs)   bands (ev):

     7.9399   8.3984   8.5177   9.1634  10.1823  10.5429  10.6782  11.8076
    12.0029  12.7013  15.1621  16.9679  20.3209  25.5144  28.1008  28.9396
    29.7382  31.2860

          k = 0.5000 0.1155 1.3064 (   220 PWs)   bands (ev):

     7.8958   8.3353   8.6062   9.1224  10.0748  10.4930  10.7121  11.6820
    11.9601  12.7066  15.2315  16.7903  20.4649  25.0755  28.1703  29.4354
    29.5262  31.5015

          k = 0.5000 0.1443 1.3268 (   218 PWs)   bands (ev):

     7.9320   8.3663   8.6893   9.1050  10.1069  10.4735  10.8277  11.6232
    11.9938  12.7868  15.3138  16.6546  20.7255  24.6135  28.2538  29.3672
    29.9877  31.7809

          k = 0.5000 0.1732 1.3472 (   217 PWs)   bands (ev):

     7.9429   8.3443   8.7338   9.0999  10.1128  10.4365  10.9555  11.5591
    12.0565  12.8453  15.4088  16.5068  21.0128  24.1436  28.3261  29.2151
    30.5102  32.0096

          k = 0.5000 0.2021 1.3676 (   217 PWs)   bands (ev):

     7.9555   8.3241   8.7817   9.0654  10.1202  10.4002  10.9919  11.4934
    12.0652  12.8750  15.5179  16.3512  21.3242  23.6886  28.4062  29.0597
    31.0127  32.1761

          k = 0.5000 0.2309 1.3880 (   218 PWs)   bands (ev):

     7.9932   8.2846   8.8361   9.0277  10.0970  10.3694  10.9990  11.3709
    12.0291  12.8504  15.6311  16.1953  21.6529  23.2536  28.5129  28.8864
    31.4772  32.2720

          k = 0.5000 0.2598 1.4085 (   219 PWs)   bands (ev):

     7.9911   8.2694   8.8711   8.9908  10.1115  10.2186  11.0240  11.3125
    12.0333  12.8580  15.7447  16.0443  22.0158  22.8176  28.5677  28.7550
    31.8501  32.2623

          k = 0.5000 0.2887 1.4289 (   220 PWs)   bands (ev):

     7.9860   8.2638   8.8847   8.9659  10.0813  10.1626  11.0131  11.2659
    12.0340  12.8527  15.8394  15.9300  22.3934  22.4067  28.6249  28.6473
    32.0984  32.1400

          k = 0.4938 0.3067 1.4263 (   219 PWs)   bands (ev):

     7.9979   8.2795   8.8974   8.9645  10.1025  10.2027  11.0354  11.3101
    12.0302  12.8612  15.9438  16.1246  22.1344  22.3931  28.4385  28.5922
    32.0549  32.1504

          k = 0.4875 0.3248 1.4238 (   218 PWs)   bands (ev):

     8.0092   8.3000   8.9045   8.9709  10.1670  10.2014  11.0782  11.3267
    12.0267  12.8663  16.0125  16.3630  21.8911  22.3750  28.2876  28.5095
    31.9175  32.1762

          k = 0.4813 0.3428 1.4212 (   218 PWs)   bands (ev):

     8.0218   8.3159   8.8999   8.9674  10.1591  10.1835  11.0847  11.3395
    12.0184  12.8625  16.0836  16.5968  21.6413  22.3610  28.0984  28.4300
    31.7162  32.1943

          k = 0.4750 0.3608 1.4187 (   218 PWs)   bands (ev):

     7.9984   8.3158   8.9058   8.9767  10.1304  10.2491  11.0861  11.3147
    12.0108  12.8629  16.1504  16.8427  21.4159  22.3385  27.9610  28.3358
    31.4306  32.2192

          k = 0.4688 0.3789 1.4161 (   217 PWs)   bands (ev):

     8.0499   8.3490   8.9054   8.9775  10.1192  10.2380  11.1014  11.3753
    12.0355  12.8752  16.2329  17.0779  21.1861  22.3435  27.7813  28.2918
    31.1438  32.2325

          k = 0.4625 0.3969 1.4136 (   216 PWs)   bands (ev):

     8.0692   8.3705   8.9102   8.9802  10.0915  10.2297  11.1330  11.5050
    12.0266  12.8840  16.3338  17.3105  20.9692  22.3508  27.6058  28.2204
    30.8599  32.2433

          k = 0.4563 0.4150 1.4110 (   215 PWs)   bands (ev):

     8.1053   8.4248   8.9108   8.9820  10.0633  10.2397  11.1698  11.5207
    12.0519  12.8992  16.4268  17.5368  20.7769  22.3535  27.4649  28.1507
    30.5338  32.2535

          k = 0.4500 0.4330 1.4085 (   216 PWs)   bands (ev):

     8.0941   8.4381   8.8898   8.9842   9.9897  10.2209  11.1655  11.5235
    12.0106  12.8546  16.5244  17.7515  20.5972  22.3364  27.2981  28.0723
    30.1686  32.2594

          k = 0.4438 0.4511 1.4059 (   215 PWs)   bands (ev):

     8.1538   8.4670   8.9126   8.9874   9.9968  10.2009  11.1714  11.5365
    12.0226  12.8633  16.6301  17.9473  20.4460  22.3687  27.1361  28.0284
    29.8452  32.2635

          k = 0.4375 0.4691 1.4034 (   216 PWs)   bands (ev):

     8.1757   8.4872   8.9145   8.9615   9.9592  10.1784  11.0713  11.5378
    11.9730  12.8375  16.7395  18.1012  20.3296  22.3819  26.9624  27.9622
    29.5016  32.2431

          k = 0.4313 0.4871 1.4008 (   216 PWs)   bands (ev):

     8.1992   8.5086   8.9221   8.9669   9.9211  10.1545  11.0679  11.5465
    11.9594  12.8215  16.8540  18.2211  20.2726  22.3982  26.8106  27.8942
    29.1611  32.2437

          k = 0.4250 0.5052 1.3983 (   216 PWs)   bands (ev):

     8.2238   8.5302   8.9318   8.9736   9.8820  10.1287  11.0647  11.5523
    11.9476  12.8056  16.9733  18.2836  20.2816  22.4176  26.6639  27.8201
    28.8297  32.2434

          k = 0.4188 0.5232 1.3957 (   217 PWs)   bands (ev):

     8.2488   8.5492   8.9289   8.9786   9.8326  10.1007  11.0599  11.4089
    11.9311  12.7772  17.0969  18.2845  20.3608  22.4346  26.5226  27.7235
    28.4906  32.2426

          k = 0.4125 0.5413 1.3931 (   216 PWs)   bands (ev):

     8.2788   8.5781   8.9596   9.0516   9.7939  10.1075  11.0332  11.4009
    11.9369  12.7627  17.2255  18.3242  20.5039  22.4587  26.3996  27.6024
    28.2166  32.2307

          k = 0.4063 0.5593 1.3906 (   215 PWs)   bands (ev):

     8.3669   8.6003   9.0007   9.0565   9.7576  10.0748  11.0317  11.3947
    11.9569  12.7917  17.3719  18.2331  20.6908  22.4919  26.2689  27.4563
    28.0156  32.2292

          k = 0.4000 0.5774 1.3880 (   214 PWs)   bands (ev):

     8.3909   8.6257   9.0259   9.0660   9.7175  10.0520  11.1355  11.3877
    11.9770  12.8066  17.5096  18.1134  20.9335  22.5177  26.1476  27.2009
    27.8912  32.2474

          k = 0.3938 0.5954 1.3855 (   214 PWs)   bands (ev):

     8.4103   8.6490   9.0495   9.0759   9.6771  10.0151  11.1313  11.3763
    11.9735  12.7935  17.6508  17.9762  21.1805  22.5427  26.0297  26.9075
    27.8151  32.2462

          k = 0.3875 0.6134 1.3829 (   216 PWs)   bands (ev):

     8.4059   8.6061   9.0620   9.0776   9.6374   9.9746  11.0504  11.2007
    11.9677  12.7721  17.7847  17.8385  21.4290  22.5523  25.8990  26.6029
    27.7389  32.1913

          k = 0.3813 0.6315 1.3804 (   216 PWs)   bands (ev):

     8.4239   8.6303   9.0674   9.1082   9.5989   9.9355  11.0483  11.1846
    11.9637  12.7611  17.6679  17.9502  21.7047  22.5698  25.7955  26.3011
    27.6984  32.1908

          k = 0.3750 0.6495 1.3778 (   218 PWs)   bands (ev):

     8.4081   8.6370   9.0627   9.1177   9.5120   9.8329  11.0246  11.1667
    11.9021  12.6927  17.5027  18.0937  21.9499  22.5681  25.6989  25.9796
    27.6344  32.1839

          k = 0.3563 0.6170 1.3089 (   215 PWs)   bands (ev):

     8.5142   8.6343   9.0317   9.1634   9.6089   9.9396  11.0922  11.2124
    11.9119  12.8137  17.9843  18.6173  21.3620  21.8667  25.0121  26.7175
    27.7568  32.7601

          k = 0.3375 0.5846 1.2401 (   214 PWs)   bands (ev):

     8.5834   8.6087   8.9175   9.1331   9.6929  10.0878  11.0480  11.2847
    11.9557  12.8923  18.4888  18.8577  20.5108  21.5880  24.6224  27.4525
    28.0178  32.8733

          k = 0.3188 0.5521 1.1712 (   216 PWs)   bands (ev):

     8.4305   8.6438   8.7864   8.9847   9.7412  10.1873  11.0291  11.3955
    11.9008  12.8526  18.2430  18.9799  20.6261  21.1083  24.5116  27.8809
    28.6971  32.2517

          k = 0.3000 0.5196 1.1023 (   218 PWs)   bands (ev):

     8.2788   8.6455   8.7906   8.9225   9.7567  10.2003  11.0293  11.2717
    11.8851  12.7976  17.2199  19.5092  20.5867  21.3219  24.6384  28.2291
    29.6590  31.1110

          k = 0.2813 0.4871 1.0334 (   218 PWs)   bands (ev):

     8.2179   8.5774   8.8270   8.9622   9.7395  10.2127  11.0862  11.3009
    11.8762  12.7550  16.1912  19.4743  20.7173  22.1854  24.9705  28.6244
    29.8926  30.7249

          k = 0.2625 0.4547 0.9645 (   220 PWs)   bands (ev):

     8.1735   8.4363   8.8144   9.0397   9.6713  10.1710  10.9712  11.3197
    11.8527  12.7010  15.1874  18.9602  21.4266  23.1337  25.4297  28.6753
    29.0475  31.8073

          k = 0.2438 0.4222 0.8956 (   218 PWs)   bands (ev):

     8.1456   8.3441   8.8466   9.2859   9.6522  10.1137  11.0777  11.3510
    11.8890  12.6467  14.3642  18.4246  22.2743  24.1988  25.9827  27.5289
    29.6277  33.0719

          k = 0.2250 0.3897 0.8267 (   216 PWs)   bands (ev):

     8.0725   8.3517   8.9266   9.4310   9.6778  10.0417  11.0549  11.3774
    11.8997  12.5795  13.6862  17.9555  23.1682  25.3153  26.3393  26.8284
    30.2896  34.3552

          k = 0.2063 0.3572 0.7578 (   215 PWs)   bands (ev):

     7.8599   8.4495   9.0306   9.4318   9.7291  10.0221  11.0314  11.3912
    11.8085  12.4212  13.1724  17.5439  23.9144  25.7527  26.4927  27.4913
    31.0011  35.6122

          k = 0.1875 0.3248 0.6889 (   221 PWs)   bands (ev):

     7.5630   8.4429   8.9296   9.3465   9.5598  10.0769  10.8910  11.1825
    11.5054  12.2169  12.7809  17.1512  23.7300  25.8876  27.7282  28.1929
    31.7308  36.8810

          k = 0.1688 0.2923 0.6200 (   220 PWs)   bands (ev):

     7.1715   8.5617   8.8632   9.3561   9.5734  10.1663  10.8703  11.2779
    11.4657  12.1180  12.5170  16.8255  23.0187  26.8785  28.9314  29.1221
    32.5775  38.1109

          k = 0.1500 0.2598 0.5511 (   218 PWs)   bands (ev):

     6.7323   8.5839   8.8563   9.5343   9.6913  10.4064  10.9113  11.1657
    11.3887  12.0456  12.3152  16.5127  22.2556  28.0645  30.0849  30.3282
    33.5554  39.0492

          k = 0.1313 0.2273 0.4822 (   225 PWs)   bands (ev):

     6.2778   8.3988   8.9738   9.4895   9.8567  10.2598  10.7704  10.8428
    11.0556  11.7690  12.0853  16.1772  21.5427  29.2979  31.1027  31.5694
    34.4331  39.5092

          k = 0.1125 0.1949 0.4134 (   225 PWs)   bands (ev):

     5.8505   8.2011   9.1517   9.5716  10.2274  10.2691  10.6442  10.7803
    11.0492  11.4899  12.0693  15.7906  21.0315  30.6353  32.2268  32.9198
    35.4555  39.4622

          k = 0.0938 0.1624 0.3445 (   226 PWs)   bands (ev):

     5.4659   8.0213   9.3598   9.6940  10.1942  10.4130  10.5727  10.7187
    10.9533  11.2529  12.0867  15.4130  20.5587  32.0072  33.4039  34.3070
    36.4665  38.8842

          k = 0.0750 0.1299 0.2756 (   224 PWs)   bands (ev):

     5.1354   7.8324   9.5735   9.9754  10.1780  10.3900  10.5666  10.8628
    11.0288  11.2563  12.0864  14.9269  20.1884  33.2830  34.6129  35.7831
    37.5761  38.4246

          k = 0.0563 0.0974 0.2067 (   225 PWs)   bands (ev):

     4.8688   7.6613   9.6398  10.0596  10.0935  10.3001  10.5078  11.0384
    11.1502  11.2611  12.0580  14.3938  19.8982  34.4784  35.8295  36.9286
    38.1232  38.6665

          k = 0.0375 0.0650 0.1378 (   224 PWs)   bands (ev):

     4.6729   7.5380   9.8263  10.0067  10.1526  10.2594  10.4563  11.0939
    11.1651  11.5416  12.1735  13.8861  19.7272  35.5417  37.0241  37.5993
    38.0600  39.8576

          k = 0.0188 0.0325 0.0689 (   221 PWs)   bands (ev):

     4.5532   7.4768   9.9718  10.0408  10.2400  10.3149  10.4314  11.1156
    11.1707  12.0398  12.2450  13.4776  19.6493  36.1432  37.8880  38.0444
    38.2914  40.9864

          k = 0.0000 0.0000 0.0000 (   221 PWs)   bands (ev):

     4.5130   7.4505   9.9766  10.0299  10.2325  10.3159  10.4213  11.1175
    11.1722  12.2376  12.2736  13.2307  19.6177  36.2945  37.9625  38.4689
    38.4853  41.5222

          k = 0.0250 0.0433 0.0306 (   221 PWs)   bands (ev):

     4.5355   7.4661   9.9816  10.0283  10.2287  10.3204  10.4286  11.1144
    11.1742  12.1053  12.2636  13.3925  19.6268  36.2061  37.9227  38.2086
    38.3592  41.2252

          k = 0.0500 0.0866 0.0612 (   223 PWs)   bands (ev):

     4.6027   7.5012   9.8788  10.0134  10.1379  10.3121  10.4433  11.0973
    11.1794  11.7606  12.2051  13.7076  19.6419  35.8371  37.6707  37.7895
    38.0289  40.5161

          k = 0.0750 0.1299 0.0919 (   225 PWs)   bands (ev):

     4.7137   7.5675   9.8210   9.9173  10.1037  10.2749  10.4725  11.0693
    11.1858  11.3887  12.1543  14.0746  19.6767  35.0833  37.2923  37.5115
    37.5262  39.7034

          k = 0.1000 0.1732 0.1225 (   225 PWs)   bands (ev):

     4.8667   7.6703   9.7489   9.9747  10.0622  10.3148  10.5183  10.9975
    11.1465  11.2219  12.1309  14.5022  19.7503  34.0421  36.9941  37.0017
    37.1024  39.0003

          k = 0.1250 0.2165 0.1531 (   223 PWs)   bands (ev):

     5.0594   7.8159   9.7359   9.9949  10.1140  10.3874  10.5277  10.9078
    11.1069  11.2621  12.1039  15.0357  19.9017  32.9471  36.1850  36.4719
    37.0005  38.4928

          k = 0.1500 0.2598 0.1837 (   221 PWs)   bands (ev):

     5.2886   7.9825   9.6597   9.9244  10.2599  10.4987  10.5738  10.7708
    11.0059  11.3171  12.2132  15.5194  20.0580  31.7615  35.2327  35.9441
    36.9281  38.1188

          k = 0.1750 0.3031 0.2143 (   225 PWs)   bands (ev):

     5.5524   8.1146   9.3609   9.5857  10.1842  10.4187  10.5337  10.6334
    11.1302  11.3006  12.1787  15.9488  20.1829  30.4272  34.0860  35.4128
    36.8489  37.7892

          k = 0.2000 0.3464 0.2449 (   225 PWs)   bands (ev):

     5.8421   8.2813   9.2374   9.4888  10.2013  10.2636  10.6110  10.6325
    11.1771  11.3660  12.1468  16.3913  20.3962  29.2232  33.0340  34.9039
    36.7804  37.1594

          k = 0.2250 0.3897 0.2756 (   221 PWs)   bands (ev):

     6.1544   8.4556   9.1185   9.4545  10.0458  10.4071  10.7311  10.8598
    11.3239  11.6808  12.1262  16.8236  20.6530  28.0545  32.0594  34.4236
    36.5685  36.7114

          k = 0.2500 0.4330 0.3062 (   220 PWs)   bands (ev):

     6.4870   8.5726   9.1050   9.3815  10.0079  10.4318  10.5894  10.8853
    11.5865  11.6832  12.1522  17.2483  20.9836  27.0486  31.0851  33.9876
    35.9294  36.6634

          k = 0.2750 0.4763 0.3368 (   220 PWs)   bands (ev):

     6.8157   8.6607   8.9967   9.2929   9.9193  10.4750  10.5483  10.9778
    11.7220  11.7721  12.1569  17.6571  21.2791  26.0207  30.0649  33.5764
    35.3398  36.4049

          k = 0.3000 0.5196 0.3674 (   219 PWs)   bands (ev):

     7.1236   8.6943   8.9266   9.2144   9.8735  10.4730  10.5765  11.0738
    11.9349  11.9387  12.2312  18.0575  21.5075  25.1665  29.0691  33.2071
    34.8241  35.9009

          k = 0.3250 0.5629 0.3980 (   215 PWs)   bands (ev):

     7.4083   8.6851   8.9035   9.3054   9.9168  10.5366  10.6376  11.2560
    12.0513  12.2209  12.4544  18.4539  21.5654  24.6521  28.1934  32.9067
    34.3048  35.2745

          k = 0.3500 0.6062 0.4287 (   216 PWs)   bands (ev):

     7.6102   8.6520   8.8232   9.2181   9.8145  10.5249  10.6134  11.5612
    12.0838  12.4107  12.5115  18.7717  21.2155  24.6411  27.2377  32.6916
    33.8000  34.3559

          k = 0.3750 0.6495 0.4593 (   216 PWs)   bands (ev):

     7.7825   8.6091   8.7924   9.1326   9.7788  10.6414  10.6611  11.5764
    12.1104  12.5458  12.8192  19.0546  20.6801  24.9980  26.3302  32.4611
    33.3732  33.4353

          k = 0.4000 0.6928 0.4899 (   218 PWs)   bands (ev):

     7.8957   8.4462   8.7611   9.1116   9.7515  10.7288  10.8952  11.2735
    12.0807  12.5469  13.2673  18.9412  20.3840  25.4722  25.5336  32.2283
    32.4868  33.0598

          k = 0.4250 0.7361 0.5205 (   219 PWs)   bands (ev):

[...]
    30.5431  30.5727

          k = 0.5000 0.5196 1.1023 (   216 PWs)   bands (ev):

     8.5092   8.6670   8.9592   9.2304   9.6723   9.7908  11.1132  11.2144
    11.8309  12.7197  18.3343  18.3831  21.6887  21.7409  25.2203  25.2300
    30.2720  30.2968

          k = 0.5000 0.5485 1.0614 (   218 PWs)   bands (ev):

     8.5544   8.6779   8.9386   9.2898   9.5296   9.6912  10.9532  11.0832
    11.8657  12.6869  18.0158  18.0754  22.3134  22.3483  25.0145  25.0428
    30.0227  30.0428

          k = 0.5000 0.5774 1.0206 (   218 PWs)   bands (ev):

     8.6169   8.7005   8.9425   9.3279   9.3968   9.6362  10.9534  11.0900
    11.9150  12.6508  17.7043  17.7792  22.8141  22.8227  25.0334  25.0896
    29.7954  29.8110

          k = 0.5000 0.6062 0.9798 (   218 PWs)   bands (ev):

     8.6433   8.7142   8.9717   9.2656   9.2904   9.6832  10.9716  11.0975
    11.9790  12.6106  17.4027  17.4964  23.0489  23.0632  25.3649  25.4451
    29.5901  29.6016

          k = 0.5000 0.6351 0.9390 (   220 PWs)   bands (ev):

     8.5471   8.6947   9.0094   9.1139   9.1488   9.7370  11.0047  11.1007
    12.0575  12.5652  17.1090  17.2259  23.0340  23.0554  25.9214  26.0093
    29.3925  29.4010

          k = 0.5000 0.6640 0.8981 (   220 PWs)   bands (ev):

     8.4873   8.6912   8.9894   9.0012   9.1723   9.8761  11.0485  11.1015
    12.1496  12.5172  16.8376  16.9811  22.9489  22.9692  26.6832  26.7722
    29.2362  29.2427

          k = 0.5000 0.6928 0.8573 (   218 PWs)   bands (ev):

     8.4302   8.6810   8.9109   8.9502   9.2629  10.0237  11.2152  11.2746
    12.2836  12.4667  16.5860  16.7598  22.8399  22.8571  27.5165  27.6049
    29.1381  29.1445

          k = 0.5000 0.7217 0.8165 (   220 PWs)   bands (ev):

     8.2830   8.6031   8.8120   8.8998   9.3526  10.1707  11.1832  11.3092
    12.3165  12.3363  16.3400  16.5537  22.7097  22.7236  28.2967  28.3819
    29.0957  29.1070

          k = 0.5000 0.7506 0.7757 (   216 PWs)   bands (ev):

     8.2104   8.5495   8.8523   8.9382   9.5017  10.4001  11.2696  11.4656
    12.3490  12.5582  16.1453  16.3932  22.6228  22.6324  28.7555  28.7943
    29.5315  29.5785

          k = 0.5000 0.7794 0.7348 (   216 PWs)   bands (ev):

     8.1352   8.4845   8.8388   8.9173   9.5805  10.5585  11.2656  11.4448
    12.3298  12.6531  15.9785  16.2609  22.5331  22.5403  28.7511  28.7720
    30.3538  30.4152

          k = 0.5000 0.8083 0.6940 (   218 PWs)   bands (ev):

     8.0809   8.4317   8.8264   8.8996   9.6460  10.6698  11.0639  11.2933
    12.2684  12.7162  15.8417  16.1494  22.4563  22.4618  28.7185  28.7359
    31.1402  31.2038

          k = 0.5000 0.8372 0.6532 (   218 PWs)   bands (ev):

     8.0601   8.4167   8.8230   8.8898   9.6838  10.8404  11.0836  11.1883
    12.2037  12.6917  15.7729  16.0996  22.4183  22.4221  28.6815  28.6979
    31.8349  31.8975

          k = 0.5000 0.8660 0.6124 (   220 PWs)   bands (ev):

     8.0401   8.4018   8.7937   8.8754   9.6133  10.8702  11.0150  11.0653
    12.1795  12.6987  15.7369  16.0661  22.3905  22.3940  28.6332  28.6499
    32.1000  32.1620

          k = 0.4938 0.8552 0.6506 (   219 PWs)   bands (ev):

     8.0503   8.4086   8.7971   8.8930   9.6502  10.8580  11.0079  11.1665
    12.1900  12.6940  15.7158  16.1257  22.3736  22.4424  28.4021  28.9336
    31.8484  32.1087

          k = 0.4875 0.8444 0.6889 (   220 PWs)   bands (ev):

     8.0295   8.3961   8.7711   8.9263   9.6307  10.7614  10.9836  11.1781
    12.2004  12.6680  15.6737  16.2390  22.3723  22.4841  28.1186  29.2391
    31.2904  31.8201

          k = 0.4813 0.8335 0.7272 (   217 PWs)   bands (ev):

     8.0870   8.4283   8.7706   8.9687   9.6790  10.7008  11.0052  11.4405
    12.2764  12.7012  15.6350  16.4306  22.3861  22.5894  27.9456  29.5616
    30.6653  31.3425

          k = 0.4750 0.8227 0.7655 (   218 PWs)   bands (ev):

     8.0931   8.4382   8.7306   9.0091   9.6414  10.5864  10.9830  11.4772
    12.2644  12.6088  15.6248  16.6227  22.4186  22.6583  27.6965  29.8474
    29.9179  30.8649

          k = 0.4688 0.8119 0.8037 (   218 PWs)   bands (ev):

     8.1536   8.4791   8.7439   8.9955   9.5985  10.4899  10.9704  11.5097
    12.2670  12.5524  15.6333  16.8430  22.4458  22.7877  27.4892  29.1858
    29.8881  30.5848

          k = 0.4625 0.8011 0.8420 (   220 PWs)   bands (ev):

     8.1743   8.4892   8.7380   8.9477   9.5529  10.3528  10.8954  11.5125
    12.2084  12.4784  15.6155  17.0846  22.4976  22.9111  27.2665  28.4430
    29.4581  30.7105

          k = 0.4563 0.7902 0.8803 (   218 PWs)   bands (ev):

     8.2324   8.5760   8.7504   8.9828   9.5414  10.2979  10.9797  11.5200
    12.2807  12.4645  15.6893  17.3485  22.5851  23.0453  27.0282  27.7412
    28.9790  31.0686

          k = 0.4500 0.7794 0.9186 (   217 PWs)   bands (ev):

     8.3027   8.6308   8.7917   9.0334   9.5178  10.2036  10.9594  11.5194
    12.2091  12.5513  15.7573  17.6463  22.6676  23.1887  26.7179  27.1948
    28.4261  31.4609

          k = 0.4438 0.7686 0.9568 (   219 PWs)   bands (ev):

     8.3192   8.6704   8.7966   9.0657   9.5018  10.1044  10.7775  11.3681
    12.0902  12.5781  15.8344  17.9510  22.7461  23.3006  26.1699  26.8748
    27.8800  31.8511

          k = 0.4375 0.7578 0.9951 (   219 PWs)   bands (ev):

     8.3687   8.7200   8.8492   9.1382   9.4983  10.0279  10.7451  11.2092
    11.9978  12.6186  15.9277  18.2779  22.8422  23.3689  25.6853  26.6857
    27.3510  32.2820

          k = 0.4313 0.7469 1.0334 (   218 PWs)   bands (ev):

     8.3884   8.7645   8.9425   9.2070   9.5081   9.9353  10.7745  11.1859
    11.9318  12.6597  16.0338  18.6194  22.9568  23.2811  25.2883  26.5489
    26.8636  32.7820

          k = 0.4250 0.7361 1.0717 (   218 PWs)   bands (ev):

     8.4084   8.7755   8.9921   9.2409   9.5275   9.8465  10.7609  11.1616
    11.8720  12.6918  16.1502  18.9778  22.9660  23.0497  25.1488  26.3943
    26.4353  33.2247

          k = 0.4188 0.7253 1.1099 (   215 PWs)   bands (ev):

     8.4309   8.8307   9.1334   9.3112   9.6004   9.7974  10.9168  11.1398
    11.8748  12.7274  16.2887  19.3505  22.4737  23.1526  25.2262  26.0809
    26.3439  33.7255

          k = 0.4125 0.7145 1.1482 (   216 PWs)   bands (ev):

     8.4379   8.8249   9.1620   9.3428   9.5608   9.7044  10.9292  11.0778
    11.8336  12.7445  16.4256  19.6511  21.9030  23.1905  25.4188  25.7218
    26.2743  34.1100

          k = 0.4063 0.7036 1.1865 (   216 PWs)   bands (ev):

     8.4589   8.8174   9.1655   9.3776   9.5498   9.6824  10.9496  11.0656
    11.8093  12.7568  16.5732  20.0035  21.3434  23.1665  25.4554  25.6663
    26.2488  34.3785

          k = 0.4000 0.6928 1.2247 (   215 PWs)   bands (ev):

     8.4789   8.9101   9.1517   9.4222   9.5472   9.6638  10.9362  11.0634
    11.8579  12.7828  16.7745  20.1420  21.0095  23.0284  25.3521  25.8829
    26.3165  34.3865

          k = 0.3938 0.6820 1.2630 (   218 PWs)   bands (ev):

     8.3955   8.7876   9.1209   9.2987   9.4653   9.7204  10.9768  11.0613
    11.8066  12.7521  16.8988  19.7569  21.1809  22.8519  25.2892  25.8453
    26.5309  34.0681

          k = 0.3875 0.6712 1.3013 (   216 PWs)   bands (ev):

     8.4216   8.7891   9.0883   9.2473   9.5687   9.7834  11.0381  11.1261
    11.8910  12.7770  17.0794  19.2699  21.6020  22.6036  25.3720  25.9054
    26.8641  33.5447

          k = 0.3813 0.6603 1.3396 (   217 PWs)   bands (ev):

     8.4357   8.7307   9.0422   9.1847   9.5736   9.8095  10.9953  11.1505
    11.8923  12.7571  17.2679  18.6840  22.0777  22.2913  25.4965  25.9528
    27.2481  32.8668

          k = 0.3750 0.6495 1.3778 (   218 PWs)   bands (ev):

     8.4151   8.6400   9.0633   9.1213   9.5280   9.8385  11.0292  11.1741
    11.9121  12.6957  17.5038  18.0969  21.9527  22.5703  25.6997  25.9813
    27.6355  32.1843

          k = 0.3875 0.6279 1.3625 (   215 PWs)   bands (ev):

     8.4286   8.6908   9.0796   9.1184   9.6348   9.9455  11.1199  11.1974
    11.9639  12.7887  17.6484  18.1620  21.7465  22.3057  25.7430  26.4177
    27.5086  32.5715

          k = 0.4000 0.6062 1.3472 (   217 PWs)   bands (ev):

     8.4118   8.6463   9.0275   9.0807   9.6897   9.9672  10.9515  11.1835
    11.9147  12.7820  17.7543  18.2248  21.4812  22.0195  25.7528  26.7987
    27.4189  32.8047

          k = 0.4125 0.5846 1.3319 (   215 PWs)   bands (ev):

     8.4213   8.6687   9.0281   9.0659   9.7430  10.0092  10.9777  11.3453
    11.9565  12.8481  17.9183  18.2940  21.2580  21.7468  25.7988  26.9659
    27.5992  33.0438

          k = 0.4250 0.5629 1.3166 (   216 PWs)   bands (ev):

     8.3401   8.6475   9.0118   9.0271   9.7904  10.0353  11.0361  11.3357
    11.9126  12.7948  18.0444  18.3593  21.0430  21.4584  25.8521  26.8677
    27.9978  33.1852

          k = 0.4375 0.5413 1.3013 (   216 PWs)   bands (ev):

     8.3298   8.6285   8.9819   9.0191   9.8365  10.0648  11.0504  11.3284
    11.9066  12.8122  18.1902  18.4388  20.8479  21.1941  25.9021  26.7512
    28.4830  33.1416

          k = 0.4500 0.5196 1.2860 (   214 PWs)   bands (ev):

     8.3405   8.6386   8.9760   9.0428   9.9748  10.0900  11.1727  11.3235
    11.9227  12.8322  18.3579  18.5291  20.6769  20.9661  25.9759  26.6896
    29.0057  32.9673

          k = 0.4625 0.4980 1.2707 (   216 PWs)   bands (ev):

     8.3093   8.5866   8.9365   8.9575  10.0120  10.0706  11.1433  11.3096
    11.8827  12.8208  18.3973  18.6003  20.5255  20.7509  26.0072  26.5675
    29.5300  32.5937

          k = 0.4750 0.4763 1.2554 (   216 PWs)   bands (ev):

     8.2863   8.5568   8.9208   8.9407  10.0431  10.0785  11.2337  11.3100
    11.8593  12.8261  18.5044  18.6577  20.4263  20.5732  26.0760  26.4526
    30.0602  32.1619

          k = 0.4875 0.4547 1.2401 (   216 PWs)   bands (ev):

     8.2744   8.5447   8.9075   8.9407  10.0687  10.0931  11.1799  11.2874
    11.9028  12.8596  18.6043  18.6922  20.3572  20.4459  26.1568  26.3457
    30.5914  31.6345

          k = 0.5000 0.4330 1.2247 (   216 PWs)   bands (ev):

     8.2727   8.5435   8.9044   8.9378  10.0762  10.0961  11.1902  11.2765
    11.8990  12.8618  18.6428  18.6969  20.3448  20.3929  26.2392  26.2547
    31.0990  31.1392

          k = 0.5125 0.4114 1.2094 (   216 PWs)   bands (ev):

     8.2756   8.5435   8.9071   8.9384  10.0631  10.1065  11.1958  11.2704
    11.8971  12.8615  18.6140  18.6829  20.3563  20.4466  26.1563  26.3462
    30.5919  31.6336

          k = 0.5250 0.3897 1.1941 (   216 PWs)   bands (ev):

     8.2891   8.5533   8.9246   8.9330  10.0390  10.0979  11.2311  11.3089
    11.8487  12.8302  18.5149  18.6480  20.4256  20.5738  26.0755  26.4531
    30.0605  32.1606

          k = 0.5375 0.3681 1.1788 (   216 PWs)   bands (ev):

     8.3153   8.5784   8.9399   8.9472  10.0124  10.0970  11.1740  11.2739
    11.8658  12.8264  18.4069  18.5921  20.5244  20.7514  26.0068  26.5681
    29.5301  32.5921

          k = 0.5500 0.3464 1.1635 (   214 PWs)   bands (ev):

     8.3502   8.6246   8.9641   9.0483   9.9811  10.1185  11.2000  11.2872
    11.9031  12.8389  18.3668  18.5222  20.6759  20.9664  25.9755  26.6903
    29.0057  32.9653

          k = 0.5625 0.3248 1.1482 (   216 PWs)   bands (ev):

     8.3436   8.6091   8.9729   9.0184   9.8458  10.0970  11.0811  11.2919
    11.8800  12.8206  18.1978  18.4341  20.8468  21.1941  25.9017  26.7521
    28.4826  33.1393

          k = 0.5750 0.3031 1.1329 (   216 PWs)   bands (ev):

     8.3548   8.6260   8.9981   9.0288   9.8045  10.0698  11.0658  11.3005
    11.8808  12.8048  18.0509  18.3561  21.0420  21.4583  25.8517  26.8691
    27.9969  33.1831

          k = 0.5875 0.2815 1.1176 (   215 PWs)   bands (ev):

     8.4366   8.6440   9.0350   9.0467   9.7611  10.0458  11.0062  11.3107
    11.9210  12.8595  17.9241  18.2922  21.2571  21.7464  25.7983  26.9681
    27.5974  33.0423

          k = 0.6000 0.2598 1.1023 (   217 PWs)   bands (ev):

     8.4274   8.6211   9.0268   9.0667   9.7127  10.0066  10.9788  11.1488
    11.8747  12.7944  17.7595  18.2240  21.4803  22.0189  25.7523  26.8013
    27.4167  32.8037

          k = 0.6125 0.2382 1.0870 (   215 PWs)   bands (ev):

     8.4438   8.6649   9.0625   9.1167   9.6630   9.9892  11.1368  11.1716
    11.9200  12.8023  17.6532  18.1624  21.7458  22.3051  25.7424  26.4193
    27.5073  32.5711

          k = 0.6250 0.2165 1.0717 (   218 PWs)   bands (ev):

     8.4292   8.6137   9.0605   9.0987   9.5665   9.8829  11.0588  11.1372
    11.8640  12.7095  17.5084  18.0981  21.9519  22.5696  25.6990  25.9826
    27.6345  32.1844

          k = 0.6188 0.1912 1.0691 (   218 PWs)   bands (ev):

     8.4081   8.6461   9.0223   9.1153   9.5559   9.8855  11.0445  11.1583
    11.8915  12.6913  17.3619  17.9233  21.9686  22.9818  25.7810  25.9926
    27.6234  31.9810

          k = 0.6125 0.1660 1.0665 (   217 PWs)   bands (ev):

     8.4404   8.6833   9.0122   9.1463   9.5636   9.9037  11.0358  11.1833
    11.9244  12.6716  17.2212  17.7569  21.9780  23.4029  25.6812  26.3002
    27.6337  31.7732

          k = 0.6063 0.1407 1.0640 (   219 PWs)   bands (ev):

     8.4126   8.6686   8.9129   9.1461   9.5252   9.8737  10.9039  11.2036
    11.9489  12.6451  17.0739  17.5913  21.9542  23.7472  25.5846  26.5389
    27.6408  31.5466

          k = 0.6000 0.1155 1.0614 (   219 PWs)   bands (ev):

     8.3901   8.7022   8.8630   9.1434   9.5039   9.9164  10.9017  11.2228
    11.9865  12.6217  16.9434  17.4321  21.9563  23.9898  25.6054  26.8760
    27.6563  31.3387

          k = 0.5938 0.0902 1.0589 (   217 PWs)   bands (ev):

     8.3671   8.7208   8.8296   9.1051   9.5406   9.9939  10.9047  11.5357
    12.0697  12.6120  16.8188  17.2868  21.9574  24.0707  25.7824  27.2252
    27.7504  31.1343

          k = 0.5875 0.0650 1.0563 (   217 PWs)   bands (ev):

     8.3392   8.7462   8.7879   9.0903   9.5265  10.0475  10.9119  11.5378
    12.1195  12.5882  16.6996  17.1408  21.9587  24.0569  26.0823  27.5844
    27.7820  30.9350

          k = 0.5813 0.0397 1.0538 (   217 PWs)   bands (ev):

     8.3108   8.7453   8.7726   9.0720   9.5190  10.1038  10.9226  11.5379
    12.1712  12.5646  16.5861  17.0026  21.9613  23.9669  26.4683  27.8243
    27.9524  30.7423

          k = 0.5750 0.0144 1.0512 (   217 PWs)   bands (ev):

     8.2820   8.7134   8.7883   9.0519   9.5179  10.1621  10.9361  11.5359
    12.2238  12.5420  16.4784  16.8727  21.9661  23.8410  26.8930  27.8853
    28.3242  30.5583

          k = 0.5688-0.0108 1.0487 (   216 PWs)   bands (ev):

     8.2599   8.6957   8.8003   9.0317   9.5253  10.2223  11.0917  11.5409
    12.2927  12.5219  16.3775  16.7517  21.9848  23.7005  27.3144  27.9836
    28.6973  30.4110

          k = 0.5625-0.0361 1.0461 (   217 PWs)   bands (ev):

     8.2097   8.6342   8.8064   9.0072   9.5246  10.2822  11.0904  11.5329
    12.2713  12.4940  16.2693  16.6392  21.9881  23.5558  27.6538  28.1863
    29.0307  30.2547

          k = 0.5563-0.0613 1.0436 (   218 PWs)   bands (ev):

     8.1348   8.6090   8.7846   8.9796   9.5399  10.3411  11.0926  11.5268
    12.2997  12.4164  16.1784  16.5264  22.0022  23.4058  27.8114  28.5470
    29.3503  30.1549

          k = 0.5500-0.0866 1.0410 (   219 PWs)   bands (ev):

     8.1023   8.5828   8.7832   8.9647   9.5587  10.3738  10.9885  11.5167
    12.2806  12.4353  16.0890  16.4337  22.0114  23.2664  27.9261  28.9990
    29.5236  30.1779

          k = 0.5438-0.1119 1.0385 (   217 PWs)   bands (ev):

     8.0719   8.5651   8.7950   9.0210   9.5998  10.5010  11.0733  11.5119
    12.3668  12.5057  16.0163  16.3531  22.0611  23.1330  28.0185  29.4725
    29.5539  30.4597

          k = 0.5375-0.1371 1.0359 (   219 PWs)   bands (ev):

     8.0147   8.5421   8.7603   8.9797   9.5991  10.5353  10.9588  11.4771
    12.3155  12.5154  15.9453  16.2796  22.0759  22.9846  28.0834  29.4113
    29.9477  30.7825

          k = 0.5313-0.1624 1.0334 (   218 PWs)   bands (ev):

     8.0172   8.5352   8.7942   8.9621   9.6247  10.6244  10.9709  11.4527
    12.3348  12.5828  15.8878  16.2202  22.1106  22.8879  28.1835  29.2825
    30.4549  31.1294

          k = 0.5250-0.1876 1.0308 (   218 PWs)   bands (ev):

     7.9995   8.5251   8.8017   8.9414   9.6441  10.6821  10.9676  11.4173
    12.3296  12.6158  15.8400  16.1709  22.1516  22.7765  28.2763  29.1501
    30.9139  31.4612

          k = 0.5188-0.2129 1.0283 (   220 PWs)   bands (ev):

     7.9538   8.5062   8.8057   8.9196   9.6420  10.7634  10.9599  11.1749
    12.2607  12.5636  15.8047  16.1242  22.2026  22.6550  28.3420  29.0073
    31.3129  31.7942

          k = 0.5125-0.2382 1.0257 (   219 PWs)   bands (ev):

     7.9780   8.5207   8.8233   8.9005   9.6555  10.8441  10.9800  11.1781
    12.2550  12.5811  15.7807  16.1023  22.2587  22.5729  28.4609  28.8796
    31.7109  32.0192

          k = 0.5063-0.2634 1.0232 (   219 PWs)   bands (ev):

     7.9696   8.5147   8.8362   8.8855   9.6642  10.8852  10.9869  11.1327
    12.2506  12.5915  15.7643  16.0853  22.3220  22.4868  28.5668  28.7581
    31.9818  32.1455

          k = 0.5000-0.2887 1.0206 (   220 PWs)   bands (ev):

     7.9620   8.5106   8.8270   8.8760   9.6233  10.8818  10.9796  11.0586
    12.2428  12.5914  15.7544  16.0721  22.3863  22.4006  28.6218  28.6580
    32.1007  32.1619

     Writing output data file /home/ponet/.julia/environments/DFControlDEV/Demo/Ni/outputs/Ni.save/

     init_run     :      0.52s CPU      0.58s WALL (       1 calls)
     electrons    :      5.93s CPU      6.13s WALL (       1 calls)

     Called by init_run:
     wfcinit      :      0.01s CPU      0.02s WALL (       1 calls)
     wfcinit:atom :      0.01s CPU      0.01s WALL (     111 calls)
     wfcinit:wfcr :      0.21s CPU      0.22s WALL (     111 calls)
     potinit      :      0.21s CPU      0.23s WALL (       1 calls)
     hinit0       :      0.28s CPU      0.28s WALL (       1 calls)

     Called by electrons:
     c_bands      :      5.93s CPU      6.12s WALL (       1 calls)
     v_of_rho     :      0.00s CPU      0.00s WALL (       1 calls)
     v_h          :      0.00s CPU      0.00s WALL (       1 calls)
     v_xc         :      0.00s CPU      0.00s WALL (       1 calls)
     newd         :      0.00s CPU      0.00s WALL (       1 calls)
     PAW_pot      :      0.18s CPU      0.20s WALL (       1 calls)

     Called by c_bands:
     init_us_2    :      0.01s CPU      0.02s WALL (     222 calls)
     cegterg      :      4.19s CPU      4.35s WALL (     184 calls)

     Called by sum_band:

     Called by *egterg:
     cdiaghg      :      0.82s CPU      0.85s WALL (    3248 calls)
     cegterg:over :      0.13s CPU      0.14s WALL (    3137 calls)
     cegterg:upda :      0.08s CPU      0.08s WALL (    3137 calls)
     cegterg:last :      0.16s CPU      0.17s WALL (    1722 calls)
     h_psi        :      3.05s CPU      3.16s WALL (    3432 calls)
     s_psi        :      0.07s CPU      0.08s WALL (    3543 calls)
     g_psi        :      0.03s CPU      0.03s WALL (    3137 calls)

     Called by h_psi:
     h_psi:calbec :      0.09s CPU      0.10s WALL (    3432 calls)
     vloc_psi     :      2.77s CPU      2.88s WALL (    3432 calls)
     add_vuspsi   :      0.08s CPU      0.08s WALL (    3432 calls)
     vhpsi        :      0.07s CPU      0.08s WALL (    3432 calls)

     General routines
     calbec       :      0.12s CPU      0.13s WALL (    6975 calls)
     fft          :      0.00s CPU      0.00s WALL (      21 calls)
     fftw         :      2.34s CPU      2.44s WALL (   67140 calls)
     davcio       :      0.01s CPU      0.01s WALL (     444 calls)

     Parallel routines

     Hubbard U routines
     vhpsi        :      0.07s CPU      0.08s WALL (    3432 calls)

     PAW routines
     PAW_pot      :      0.18s CPU      0.20s WALL (       1 calls)

     PWSCF        :      6.84s CPU      7.11s WALL


   This run was terminated on:  13: 1:15  19May2021            

=------------------------------------------------------------------------------=
   JOB DONE.
=------------------------------------------------------------------------------=
