
     Program PROJWFC v.6.7GPU starts on 19May2021 at 13: 1:21 

     This program is part of the open-source Quantum ESPRESSO suite
     for quantum simulation of materials; please cite
         "P. Giannozzi et al., J. Phys.:Condens. Matter 21 395502 (2009);
         "P. Giannozzi et al., J. Phys.:Condens. Matter 29 465901 (2017);
         "P. Giannozzi et al., J. Chem. Phys. 152 154105 (2020);
          URL http://www.quantum-espresso.org", 
     in publications or presentations arising from this work. More details at
     http://www.quantum-espresso.org/quote

     Parallel version (MPI & OpenMP), running on       4 processor cores
     Number of MPI processes:                 4
     Threads/MPI process:                     1

     MPI processes distributed on     1 nodes
     R & G space division:  proc/nbgrp/npool/nimage =       4

     Reading xml data from directory:

     /home/ponet/.julia/environments/DFControlDEV/Demo/Ni/outputs/Ni.save/
     file Ni.pbesol-n-kjpaw_psl.0.1.UPF: wavefunction(s)  4S 3D renormalized
     file Ni.pbesol-n-kjpaw_psl.0.1.UPF: wavefunction(s)  4S 3D renormalized

     IMPORTANT: XC functional enforced from input :
     Exchange-correlation= PBESOL
                           (   1   4  10   8   0   0   0)
     Any further DFT definition will be discarded
     Please, verify this is what you really want


     Parallelization info
     --------------------
     sticks:   dense  smooth     PW     G-vecs:    dense   smooth      PW
     Min          61      61     26                  444      444     130
     Max          62      62     27                  445      445     132
     Sum         247     247    107                 1779     1779     525

     Using Slab Decomposition


     Check: negative core charge=   -0.000061

     Gaussian broadening (read from input): ngauss,degauss=   0    0.010000


     Calling projwave .... 

     Subspace diagonalization in iterative solution of the eigenvalue problem:
     one sub-group per band group will be used
     scalapack distributed-memory algorithm (size of sub-group:  2*  2 procs)

     linear algebra parallelized on   4 procs

  Problem Sizes 
  natomwfc =           18
  nx       =            9
  nbnd     =           18
  nkstot   =          250
  npwx     =           60
  nkb      =           36


     Atomic states used for projection
     (read from pseudopotential files):

     state #   1: atom   1 (Ni ), wfc  1 (l=0 m= 1)
     state #   2: atom   1 (Ni ), wfc  2 (l=1 m= 1)
     state #   3: atom   1 (Ni ), wfc  2 (l=1 m= 2)
     state #   4: atom   1 (Ni ), wfc  2 (l=1 m= 3)
     state #   5: atom   1 (Ni ), wfc  3 (l=2 m= 1)
     state #   6: atom   1 (Ni ), wfc  3 (l=2 m= 2)
     state #   7: atom   1 (Ni ), wfc  3 (l=2 m= 3)
     state #   8: atom   1 (Ni ), wfc  3 (l=2 m= 4)
     state #   9: atom   1 (Ni ), wfc  3 (l=2 m= 5)
     state #  10: atom   2 (Ni1), wfc  1 (l=0 m= 1)
     state #  11: atom   2 (Ni1), wfc  2 (l=1 m= 1)
     state #  12: atom   2 (Ni1), wfc  2 (l=1 m= 2)
     state #  13: atom   2 (Ni1), wfc  2 (l=1 m= 3)
     state #  14: atom   2 (Ni1), wfc  3 (l=2 m= 1)
     state #  15: atom   2 (Ni1), wfc  3 (l=2 m= 2)
     state #  16: atom   2 (Ni1), wfc  3 (l=2 m= 3)
     state #  17: atom   2 (Ni1), wfc  3 (l=2 m= 4)
     state #  18: atom   2 (Ni1), wfc  3 (l=2 m= 5)

 k =   0.0000000000  0.0000000000  0.0000000000
==== e(   1) =     4.51298 eV ==== 
     psi = 0.499*[#   1]+0.495*[#  10]
    |psi|^2 = 0.993
==== e(   2) =     7.45051 eV ==== 
     psi = 0.289*[#   9]+0.138*[#   6]+0.096*[#   8]+0.090*[#  18]+0.078*[#   1]
          +0.079*[#  10]+0.066*[#   5]+0.046*[#  15]+0.046*[#   7]+0.030*[#  17]
          +0.025*[#  14]+0.015*[#  16]
    |psi|^2 = 0.999
==== e(   3) =     9.97663 eV ==== 
     psi = 0.601*[#   5]+0.166*[#   9]+0.075*[#  15]+0.055*[#   8]+0.045*[#  14]
          +0.025*[#  16]+0.019*[#   6]+0.006*[#   7]+0.004*[#  18]+0.001*[#  17]
          
    |psi|^2 = 1.000
==== e(   4) =    10.02986 eV ==== 
     psi = 0.405*[#   7]+0.184*[#   8]+0.160*[#  17]+0.135*[#   6]+0.061*[#   9]
          +0.053*[#  18]
    |psi|^2 = 1.000
==== e(   5) =    10.23250 eV ==== 
     psi = 0.364*[#  16]+0.163*[#   7]+0.151*[#  17]+0.121*[#  15]+0.072*[#   8]
          +0.054*[#   6]+0.050*[#  18]+0.024*[#   9]
    |psi|^2 = 0.999
==== e(   6) =    10.31587 eV ==== 
     psi = 0.646*[#  14]+0.134*[#   9]+0.069*[#   6]+0.045*[#   8]+0.035*[#   5]
          +0.031*[#  15]+0.023*[#   7]+0.010*[#  16]+0.002*[#  18]+0.001*[#   1]
          +0.001*[#  10]
    |psi|^2 = 0.999
==== e(   7) =    10.42134 eV ==== 
     psi = 0.384*[#  18]+0.173*[#   6]+0.128*[#  17]+0.122*[#  15]+0.058*[#   7]
          +0.041*[#   9]+0.041*[#  16]+0.023*[#   5]+0.014*[#   8]+0.008*[#  10]
          +0.008*[#   1]+0.002*[#  14]
    |psi|^2 = 0.999
==== e(   8) =    11.11750 eV ==== 
     psi = 0.383*[#  16]+0.178*[#   7]+0.128*[#  15]+0.102*[#  17]+0.087*[#   8]
          +0.059*[#   6]+0.034*[#  18]+0.029*[#   9]
    |psi|^2 = 1.000
==== e(   9) =    11.17216 eV ==== 
     psi = 0.298*[#  15]+0.216*[#  18]+0.146*[#   6]+0.099*[#  16]+0.075*[#   9]
          +0.072*[#  17]+0.049*[#   7]+0.025*[#   8]+0.020*[#  14]
    |psi|^2 = 1.000
==== e(  10) =    12.23763 eV ==== 
     psi = 0.406*[#   8]+0.337*[#  17]+0.135*[#   9]+0.112*[#  18]+0.004*[#   7]
          +0.002*[#  16]+0.001*[#   6]
    |psi|^2 = 1.000
==== e(  11) =    12.27364 eV ==== 
     psi = 0.266*[#   5]+0.251*[#  14]+0.188*[#   6]+0.153*[#  15]+0.063*[#   7]
          +0.051*[#  16]+0.013*[#   9]+0.007*[#  18]+0.004*[#   8]+0.002*[#  17]
          
    |psi|^2 = 1.000
==== e(  12) =    13.23074 eV ==== 
     psi = 0.334*[#   3]+0.332*[#  12]+0.111*[#   4]+0.111*[#  13]
    |psi|^2 = 0.888
==== e(  13) =    19.61767 eV ==== 
     psi = 0.408*[#  10]+0.405*[#   1]+0.046*[#  18]+0.031*[#   9]+0.023*[#  15]
          +0.016*[#   6]+0.015*[#  17]+0.011*[#  14]+0.010*[#   8]+0.008*[#   5]
          +0.008*[#  16]+0.005*[#   7]
    |psi|^2 = 0.987
==== e(  14) =    36.29451 eV ==== 

    |psi|^2 = 0.000
==== e(  15) =    37.96248 eV ==== 

    |psi|^2 = 0.000
==== e(  16) =    38.46886 eV ==== 
     psi = 0.345*[#   4]+0.331*[#  13]+0.115*[#   3]+0.110*[#  12]
    |psi|^2 = 0.902
==== e(  17) =    38.48530 eV ==== 
     psi = 0.407*[#   2]+0.395*[#  11]+0.038*[#   3]+0.037*[#  12]+0.013*[#   4]
          +0.012*[#  13]
    |psi|^2 = 0.902
==== e(  18) =    41.52210 eV ==== 
     psi = 0.318*[#  11]+0.309*[#   2]+0.025*[#   3]+0.025*[#  12]+0.009*[#   4]
          +0.008*[#  13]
    |psi|^2 = 0.693

 k =   0.2000000000 -0.1154700538 -0.0816496581
==== e(   1) =     4.89827 eV ==== 
     psi = 0.287*[#   1]+0.277*[#  10]+0.145*[#  12]+0.141*[#   3]+0.048*[#  13]
          +0.047*[#   4]+0.024*[#  11]+0.024*[#   2]
    |psi|^2 = 0.995
==== e(   2) =     7.41288 eV ==== 
     psi = 0.255*[#   9]+0.145*[#  11]+0.141*[#   2]+0.122*[#   6]+0.092*[#  10]
          +0.085*[#   8]+0.080*[#   1]+0.078*[#  18]+0.058*[#   5]+0.041*[#   7]
          +0.040*[#  15]+0.032*[#   3]+0.026*[#  17]+0.026*[#  12]+0.021*[#  14]
          +0.013*[#  16]+0.011*[#   4]+0.009*[#  13]
    |psi|^2 = 1.275
==== e(   3) =     9.82558 eV ==== 
     psi = 0.409*[#   5]+0.240*[#   9]+0.082*[#   6]+0.081*[#  15]+0.080*[#   8]
          +0.029*[#  18]+0.027*[#   7]+0.027*[#  16]+0.013*[#  14]+0.010*[#  17]
          +0.005*[#   2]+0.004*[#  11]
    |psi|^2 = 1.009
==== e(   4) =     9.87151 eV ==== 
     psi = 0.555*[#   7]+0.185*[#   6]+0.168*[#  16]+0.056*[#  15]+0.032*[#   2]
          +0.026*[#  11]+0.021*[#   8]+0.007*[#   9]+0.006*[#  17]+0.002*[#  18]
          
    |psi|^2 = 1.058
==== e(   5) =    10.24611 eV ==== 
     psi = 0.266*[#  17]+0.265*[#  16]+0.198*[#   8]+0.089*[#  18]+0.088*[#  15]
          +0.066*[#   9]+0.021*[#   7]+0.007*[#   6]
    |psi|^2 = 0.999
==== e(   6) =    10.26323 eV ==== 
     psi = 0.216*[#  14]+0.160*[#  18]+0.134*[#   5]+0.124*[#   9]+0.100*[#  15]
          +0.053*[#  17]+0.049*[#   6]+0.041*[#   8]+0.033*[#  16]+0.021*[#  12]
          +0.016*[#   7]+0.015*[#   1]+0.011*[#   3]+0.010*[#  10]+0.007*[#  13]
          +0.004*[#   4]
    |psi|^2 = 0.994
==== e(   7) =    10.35612 eV ==== 
     psi = 0.460*[#  14]+0.176*[#  18]+0.121*[#   6]+0.109*[#   5]+0.059*[#  17]
          +0.040*[#   7]+0.013*[#  15]+0.006*[#   9]+0.004*[#  16]+0.003*[#  11]
          +0.003*[#  12]+0.002*[#   2]+0.002*[#   8]+0.002*[#   1]+0.002*[#   3]
          +0.001*[#  10]
    |psi|^2 = 1.004
==== e(   8) =    11.08890 eV ==== 
     psi = 0.316*[#  16]+0.171*[#   7]+0.154*[#  17]+0.108*[#   8]+0.105*[#  15]
          +0.057*[#   6]+0.051*[#  18]+0.036*[#   9]+0.021*[#  11]+0.011*[#   2]
          
    |psi|^2 = 1.031
==== e(   9) =    11.13406 eV ==== 
     psi = 0.323*[#  15]+0.176*[#  18]+0.168*[#   6]+0.108*[#  16]+0.080*[#   9]
          +0.059*[#  17]+0.056*[#   7]+0.027*[#   8]+0.002*[#   5]+0.001*[#  14]
          
    |psi|^2 = 1.000
==== e(  10) =    11.90856 eV ==== 
     psi = 0.237*[#   3]+0.228*[#  12]+0.104*[#  18]+0.079*[#   4]+0.076*[#  13]
          +0.035*[#  17]+0.034*[#  14]+0.031*[#  15]+0.025*[#  10]+0.024*[#   1]
          +0.017*[#   9]+0.012*[#   5]+0.010*[#  16]+0.006*[#   8]+0.004*[#   6]
          +0.001*[#   7]
    |psi|^2 = 0.923
==== e(  11) =    11.91506 eV ==== 
     psi = 0.422*[#   8]+0.324*[#  17]+0.141*[#   9]+0.108*[#  18]+0.039*[#   2]
          +0.038*[#  11]+0.003*[#   7]+0.001*[#   6]
    |psi|^2 = 1.076
==== e(  12) =    11.95115 eV ==== 
     psi = 0.272*[#   5]+0.247*[#  14]+0.237*[#   2]+0.227*[#  11]+0.195*[#   6]
          +0.150*[#  15]+0.065*[#   7]+0.050*[#  16]+0.010*[#   9]+0.003*[#   8]
          +0.002*[#  18]+0.001*[#   3]+0.001*[#  12]
    |psi|^2 = 1.463
==== e(  13) =    21.75246 eV ==== 
     psi = 0.369*[#  10]+0.369*[#   1]+0.053*[#  12]+0.052*[#   3]+0.023*[#  18]
          +0.018*[#  13]+0.017*[#   4]+0.016*[#   9]+0.012*[#  15]+0.009*[#  11]
          +0.009*[#   2]+0.008*[#   6]+0.008*[#  17]+0.006*[#  14]+0.005*[#   8]
          +0.004*[#   5]+0.004*[#  16]+0.003*[#   7]
    |psi|^2 = 0.986
==== e(  14) =    36.31674 eV ==== 
     psi = 0.053*[#  11]+0.052*[#   2]+0.042*[#  10]+0.040*[#   1]+0.039*[#   3]
          +0.038*[#  12]+0.013*[#   4]+0.013*[#  13]
    |psi|^2 = 0.292
==== e(  15) =    36.63256 eV ==== 
     psi = 0.006*[#   2]+0.007*[#  11]
    |psi|^2 = 0.013
==== e(  16) =    38.68603 eV ==== 
     psi = 0.314*[#   4]+0.300*[#  13]+0.105*[#   3]+0.100*[#  12]+0.039*[#   2]
          +0.038*[#  11]
    |psi|^2 = 0.895
==== e(  17) =    38.69990 eV ==== 
     psi = 0.369*[#   2]+0.357*[#  11]+0.034*[#   3]+0.034*[#  12]+0.011*[#   4]
          +0.011*[#  13]
    |psi|^2 = 0.817
==== e(  18) =    39.06304 eV ==== 
     psi = 0.052*[#  10]+0.051*[#   1]+0.050*[#  12]+0.050*[#   3]+0.017*[#  13]
          +0.017*[#   4]+0.009*[#  11]+0.008*[#   2]
    |psi|^2 = 0.253

 k =   0.4000000000 -0.2309401077 -0.1632993162
==== e(   1) =     5.93168 eV ==== 
     psi = 0.242*[#  12]+0.190*[#   3]+0.173*[#   1]+0.128*[#  10]+0.081*[#  13]
          +0.063*[#   4]+0.040*[#  11]+0.032*[#   2]+0.018*[#   9]+0.008*[#   6]
          +0.006*[#   8]+0.004*[#   5]+0.004*[#  18]+0.003*[#   7]+0.002*[#  15]
          +0.001*[#  17]
    |psi|^2 = 0.997
==== e(   2) =     7.09404 eV ==== 
     psi = 0.242*[#  11]+0.198*[#   3]+0.190*[#   2]+0.142*[#  10]+0.105*[#   9]
          +0.103*[#  12]+0.086*[#   1]+0.066*[#   4]+0.050*[#   6]+0.038*[#  18]
          +0.035*[#   8]+0.034*[#  13]+0.024*[#   5]+0.020*[#  15]+0.017*[#   7]
          +0.013*[#  17]+0.010*[#  14]+0.007*[#  16]
    |psi|^2 = 1.381
==== e(   3) =     9.52465 eV ==== 
     psi = 0.352*[#   9]+0.138*[#   6]+0.119*[#  12]+0.117*[#   8]+0.054*[#   5]
          +0.046*[#   7]+0.040*[#  13]+0.033*[#   2]+0.022*[#  18]+0.020*[#   3]
          +0.018*[#   1]+0.017*[#  11]+0.015*[#  15]+0.009*[#  14]+0.007*[#  17]
          +0.007*[#   4]+0.007*[#  10]+0.005*[#  16]
    |psi|^2 = 1.026
==== e(   4) =    10.02323 eV ==== 
     psi = 0.514*[#   5]+0.198*[#   2]+0.191*[#   9]+0.116*[#   6]+0.103*[#  11]
          +0.064*[#   8]+0.039*[#   7]+0.025*[#  14]+0.022*[#  18]+0.015*[#  15]
          +0.007*[#  17]+0.005*[#  16]
    |psi|^2 = 1.300
==== e(   5) =    10.07555 eV ==== 
     psi = 0.597*[#   7]+0.199*[#   6]+0.113*[#  16]+0.038*[#  15]+0.037*[#   8]
          +0.012*[#   9]+0.003*[#  17]
    |psi|^2 = 1.000
==== e(   6) =    10.51413 eV ==== 
     psi = 0.508*[#  16]+0.169*[#  15]+0.122*[#  17]+0.082*[#   7]+0.041*[#  18]
          +0.037*[#   8]+0.027*[#   6]+0.012*[#   9]
    |psi|^2 = 0.999
==== e(   7) =    10.62472 eV ==== 
     psi = 0.695*[#  14]+0.114*[#  15]+0.062*[#   5]+0.038*[#  18]+0.038*[#  16]
          +0.013*[#  17]+0.011*[#   9]+0.011*[#   3]+0.004*[#   8]+0.004*[#  12]
          +0.004*[#   4]+0.001*[#  13]
    |psi|^2 = 0.997
==== e(   8) =    10.75508 eV ==== 
     psi = 0.514*[#  18]+0.171*[#  17]+0.112*[#  15]+0.074*[#   3]+0.037*[#  16]
          +0.025*[#   4]+0.023*[#  12]+0.013*[#   5]+0.008*[#  13]+0.002*[#  10]
          +0.001*[#   1]
    |psi|^2 = 0.983
==== e(   9) =    11.43566 eV ==== 
     psi = 0.381*[#  17]+0.207*[#   8]+0.127*[#  18]+0.114*[#  16]+0.069*[#   9]
          +0.047*[#   7]+0.038*[#  15]+0.016*[#   6]
    |psi|^2 = 1.000
==== e(  10) =    11.47369 eV ==== 
     psi = 0.305*[#  15]+0.185*[#   6]+0.102*[#  16]+0.101*[#  14]+0.086*[#   5]
          +0.082*[#  18]+0.062*[#   7]+0.036*[#   9]+0.027*[#  17]+0.012*[#   8]
          
    |psi|^2 = 0.999
==== e(  11) =    11.81171 eV ==== 
     psi = 0.468*[#   8]+0.244*[#  17]+0.156*[#   9]+0.081*[#  18]+0.023*[#   7]
          +0.014*[#  16]+0.008*[#   6]+0.005*[#  15]
    |psi|^2 = 1.001
==== e(  12) =    11.84031 eV ==== 
     psi = 0.246*[#   6]+0.241*[#   5]+0.160*[#  15]+0.155*[#  14]+0.082*[#   7]
          +0.053*[#  16]+0.027*[#   9]+0.018*[#  18]+0.009*[#   8]+0.006*[#  17]
          
    |psi|^2 = 0.999
==== e(  13) =    26.10751 eV ==== 
     psi = 0.368*[#   1]+0.350*[#  10]+0.074*[#  12]+0.068*[#   3]+0.025*[#  13]
          +0.023*[#   4]+0.012*[#  11]+0.011*[#   2]+0.009*[#  18]+0.006*[#   9]
          +0.004*[#  15]+0.003*[#   6]+0.003*[#  17]+0.002*[#   8]+0.002*[#  14]
          +0.002*[#   5]+0.001*[#  16]+0.001*[#   7]
    |psi|^2 = 0.965
==== e(  14) =    31.10976 eV ==== 
     psi = 0.285*[#  10]+0.266*[#   1]+0.082*[#   3]+0.078*[#  12]+0.074*[#  11]
          +0.068*[#   2]+0.027*[#   4]+0.026*[#  13]+0.003*[#  18]+0.002*[#   9]
          +0.001*[#  15]
    |psi|^2 = 0.916
==== e(  15) =    37.51679 eV ==== 
     psi = 0.014*[#   2]+0.013*[#  11]
    |psi|^2 = 0.027
==== e(  16) =    38.43924 eV ==== 
     psi = 0.082*[#   2]+0.078*[#  11]+0.009*[#   1]+0.009*[#  10]+0.003*[#  12]
          +0.003*[#   3]
    |psi|^2 = 0.186
==== e(  17) =    39.24411 eV ==== 
     psi = 0.239*[#   4]+0.218*[#  13]+0.080*[#   3]+0.073*[#  12]
    |psi|^2 = 0.609
==== e(  18) =    39.25254 eV ==== 
     psi = 0.275*[#   2]+0.264*[#  11]+0.026*[#   3]+0.025*[#  12]+0.009*[#   4]
          +0.008*[#  13]
    |psi|^2 = 0.607

 k =   0.6000000000 -0.3464101615 -0.2449489743
==== e(   1) =     5.93168 eV ==== 
     psi = 0.242*[#  12]+0.190*[#   3]+0.173*[#   1]+0.128*[#  10]+0.081*[#  13]
          +0.063*[#   4]+0.040*[#  11]+0.032*[#   2]+0.018*[#   9]+0.008*[#   6]
          +0.006*[#   8]+0.004*[#   5]+0.004*[#  18]+0.003*[#   7]+0.002*[#  15]
          +0.001*[#  17]
    |psi|^2 = 0.997
==== e(   2) =     7.09404 eV ==== 
     psi = 0.242*[#  11]+0.198*[#   3]+0.190*[#   2]+0.142*[#  10]+0.105*[#   9]
          +0.103*[#  12]+0.086*[#   1]+0.066*[#   4]+0.050*[#   6]+0.038*[#  18]
          +0.035*[#   8]+0.034*[#  13]+0.024*[#   5]+0.020*[#  15]+0.017*[#   7]
          +0.013*[#  17]+0.010*[#  14]+0.007*[#  16]
    |psi|^2 = 1.381
==== e(   3) =     9.52465 eV ==== 
     psi = 0.352*[#   9]+0.138*[#   6]+0.119*[#  12]+0.117*[#   8]+0.054*[#   5]
          +0.046*[#   7]+0.040*[#  13]+0.033*[#   2]+0.022*[#  18]+0.020*[#   3]
          +0.018*[#   1]+0.017*[#  11]+0.015*[#  15]+0.009*[#  14]+0.007*[#  17]
          +0.007*[#   4]+0.007*[#  10]+0.005*[#  16]
    |psi|^2 = 1.026
==== e(   4) =    10.02323 eV ==== 
     psi = 0.514*[#   5]+0.198*[#   2]+0.191*[#   9]+0.116*[#   6]+0.103*[#  11]
          +0.064*[#   8]+0.039*[#   7]+0.025*[#  14]+0.022*[#  18]+0.015*[#  15]
          +0.007*[#  17]+0.005*[#  16]
    |psi|^2 = 1.300
==== e(   5) =    10.07555 eV ==== 
     psi = 0.597*[#   7]+0.199*[#   6]+0.113*[#  16]+0.038*[#  15]+0.037*[#   8]
          +0.012*[#   9]+0.003*[#  17]
    |psi|^2 = 1.000
==== e(   6) =    10.51413 eV ==== 
     psi = 0.508*[#  16]+0.169*[#  15]+0.122*[#  17]+0.082*[#   7]+0.041*[#  18]
          +0.037*[#   8]+0.027*[#   6]+0.012*[#   9]
    |psi|^2 = 0.999
==== e(   7) =    10.62472 eV ==== 
     psi = 0.695*[#  14]+0.114*[#  15]+0.062*[#   5]+0.038*[#  18]+0.038*[#  16]
          +0.013*[#  17]+0.011*[#   9]+0.011*[#   3]+0.004*[#   8]+0.004*[#  12]
          +0.004*[#   4]+0.001*[#  13]
    |psi|^2 = 0.997
==== e(   8) =    10.75508 eV ==== 
     psi = 0.514*[#  18]+0.171*[#  17]+0.112*[#  15]+0.074*[#   3]+0.037*[#  16]
          +0.025*[#   4]+0.023*[#  12]+0.013*[#   5]+0.008*[#  13]+0.002*[#  10]
          +0.001*[#   1]
    |psi|^2 = 0.983
==== e(   9) =    11.43566 eV ==== 
     psi = 0.381*[#  17]+0.207*[#   8]+0.127*[#  18]+0.114*[#  16]+0.069*[#   9]
          +0.047*[#   7]+0.038*[#  15]+0.016*[#   6]
    |psi|^2 = 1.000
==== e(  10) =    11.47369 eV ==== 
     psi = 0.305*[#  15]+0.185*[#   6]+0.102*[#  16]+0.101*[#  14]+0.086*[#   5]
          +0.082*[#  18]+0.062*[#   7]+0.036*[#   9]+0.027*[#  17]+0.012*[#   8]
          
    |psi|^2 = 0.999
==== e(  11) =    11.81171 eV ==== 
     psi = 0.468*[#   8]+0.244*[#  17]+0.156*[#   9]+0.081*[#  18]+0.023*[#   7]
          +0.014*[#  16]+0.008*[#   6]+0.005*[#  15]
    |psi|^2 = 1.001
==== e(  12) =    11.84031 eV ==== 
     psi = 0.246*[#   6]+0.241*[#   5]+0.160*[#  15]+0.155*[#  14]+0.082*[#   7]
          +0.053*[#  16]+0.027*[#   9]+0.018*[#  18]+0.009*[#   8]+0.006*[#  17]
          
    |psi|^2 = 0.999
==== e(  13) =    26.10751 eV ==== 
     psi = 0.368*[#   1]+0.350*[#  10]+0.074*[#  12]+0.068*[#   3]+0.025*[#  13]
          +0.023*[#   4]+0.012*[#  11]+0.011*[#   2]+0.009*[#  18]+0.006*[#   9]
          +0.004*[#  15]+0.003*[#   6]+0.003*[#  17]+0.002*[#   8]+0.002*[#  14]
          +0.002*[#   5]+0.001*[#  16]+0.001*[#   7]
    |psi|^2 = 0.965
==== e(  14) =    31.10976 eV ==== 
     psi = 0.285*[#  10]+0.266*[#   1]+0.082*[#   3]+0.078*[#  12]+0.074*[#  11]
          +0.068*[#   2]+0.027*[#   4]+0.026*[#  13]+0.003*[#  18]+0.002*[#   9]
          +0.001*[#  15]
    |psi|^2 = 0.916
==== e(  15) =    37.51679 eV ==== 
     psi = 0.014*[#   2]+0.013*[#  11]
    |psi|^2 = 0.027
==== e(  16) =    38.43924 eV ==== 
     psi = 0.082*[#   2]+0.078*[#  11]+0.009*[#   1]+0.009*[#  10]+0.003*[#  12]
          +0.003*[#   3]
    |psi|^2 = 0.186
==== e(  17) =    39.24411 eV ==== 
     psi = 0.239*[#   4]+0.218*[#  13]+0.080*[#   3]+0.073*[#  12]
    |psi|^2 = 0.609
==== e(  18) =    39.25254 eV ==== 
     psi = 0.275*[#   2]+0.264*[#  11]+0.026*[#   3]+0.025*[#  12]+0.009*[#   4]
          +0.008*[#  13]
    |psi|^2 = 0.607

 k =   0.8000000000 -0.4618802154 -0.3265986324
==== e(   1) =     4.89827 eV ==== 
     psi = 0.287*[#   1]+0.277*[#  10]+0.145*[#  12]+0.141*[#   3]+0.048*[#  13]
          +0.047*[#   4]+0.024*[#  11]+0.024*[#   2]
    |psi|^2 = 0.995
==== e(   2) =     7.41288 eV ==== 
     psi = 0.255*[#   9]+0.145*[#  11]+0.141*[#   2]+0.122*[#   6]+0.092*[#  10]
          +0.085*[#   8]+0.080*[#   1]+0.078*[#  18]+0.058*[#   5]+0.041*[#   7]
          +0.040*[#  15]+0.032*[#   3]+0.026*[#  17]+0.026*[#  12]+0.021*[#  14]
          +0.013*[#  16]+0.011*[#   4]+0.009*[#  13]
    |psi|^2 = 1.275
==== e(   3) =     9.82558 eV ==== 
     psi = 0.409*[#   5]+0.240*[#   9]+0.082*[#   6]+0.081*[#  15]+0.080*[#   8]
          +0.029*[#  18]+0.027*[#   7]+0.027*[#  16]+0.013*[#  14]+0.010*[#  17]
          +0.005*[#   2]+0.004*[#  11]
    |psi|^2 = 1.009
==== e(   4) =     9.87151 eV ==== 
     psi = 0.555*[#   7]+0.185*[#   6]+0.168*[#  16]+0.056*[#  15]+0.032*[#   2]
          +0.026*[#  11]+0.021*[#   8]+0.007*[#   9]+0.006*[#  17]+0.002*[#  18]
          
    |psi|^2 = 1.058
==== e(   5) =    10.24611 eV ==== 
     psi = 0.266*[#  17]+0.265*[#  16]+0.198*[#   8]+0.089*[#  18]+0.088*[#  15]
          +0.066*[#   9]+0.021*[#   7]+0.007*[#   6]
    |psi|^2 = 0.999
==== e(   6) =    10.26323 eV ==== 
     psi = 0.216*[#  14]+0.160*[#  18]+0.134*[#   5]+0.124*[#   9]+0.100*[#  15]
          +0.053*[#  17]+0.049*[#   6]+0.041*[#   8]+0.033*[#  16]+0.021*[#  12]
          +0.016*[#   7]+0.015*[#   1]+0.011*[#   3]+0.010*[#  10]+0.007*[#  13]
          +0.004*[#   4]
    |psi|^2 = 0.994
==== e(   7) =    10.35612 eV ==== 
     psi = 0.460*[#  14]+0.176*[#  18]+0.121*[#   6]+0.109*[#   5]+0.059*[#  17]
          +0.040*[#   7]+0.013*[#  15]+0.006*[#   9]+0.004*[#  16]+0.003*[#  11]
          +0.003*[#  12]+0.002*[#   2]+0.002*[#   8]+0.002*[#   1]+0.002*[#   3]
          +0.001*[#  10]
    |psi|^2 = 1.004
==== e(   8) =    11.08890 eV ==== 
     psi = 0.316*[#  16]+0.171*[#   7]+0.154*[#  17]+0.108*[#   8]+0.105*[#  15]
          +0.057*[#   6]+0.051*[#  18]+0.036*[#   9]+0.021*[#  11]+0.011*[#   2]
          
    |psi|^2 = 1.031
==== e(   9) =    11.13406 eV ==== 
     psi = 0.323*[#  15]+0.176*[#  18]+0.168*[#   6]+0.108*[#  16]+0.080*[#   9]
          +0.059*[#  17]+0.056*[#   7]+0.027*[#   8]+0.002*[#   5]+0.001*[#  14]
          
    |psi|^2 = 1.000
==== e(  10) =    11.90856 eV ==== 
     psi = 0.237*[#   3]+0.228*[#  12]+0.104*[#  18]+0.079*[#   4]+0.076*[#  13]
          +0.035*[#  17]+0.034*[#  14]+0.031*[#  15]+0.025*[#  10]+0.024*[#   1]
          +0.017*[#   9]+0.012*[#   5]+0.010*[#  16]+0.006*[#   8]+0.004*[#   6]
          +0.001*[#   7]
    |psi|^2 = 0.923
==== e(  11) =    11.91506 eV ==== 
     psi = 0.422*[#   8]+0.324*[#  17]+0.141*[#   9]+0.108*[#  18]+0.039*[#   2]
          +0.038*[#  11]+0.003*[#   7]+0.001*[#   6]
    |psi|^2 = 1.076
==== e(  12) =    11.95115 eV ==== 
     psi = 0.272*[#   5]+0.247*[#  14]+0.237*[#   2]+0.227*[#  11]+0.195*[#   6]
          +0.150*[#  15]+0.065*[#   7]+0.050*[#  16]+0.010*[#   9]+0.003*[#   8]
          +0.002*[#  18]+0.001*[#   3]+0.001*[#  12]
    |psi|^2 = 1.463
==== e(  13) =    21.75246 eV ==== 
     psi = 0.369*[#  10]+0.369*[#   1]+0.053*[#  12]+0.052*[#   3]+0.023*[#  18]
          +0.018*[#  13]+0.017*[#   4]+0.016*[#   9]+0.012*[#  15]+0.009*[#  11]
          +0.009*[#   2]+0.008*[#   6]+0.008*[#  17]+0.006*[#  14]+0.005*[#   8]
          +0.004*[#   5]+0.004*[#  16]+0.003*[#   7]
    |psi|^2 = 0.986
==== e(  14) =    36.31674 eV ==== 
     psi = 0.053*[#  11]+0.052*[#   2]+0.042*[#  10]+0.040*[#   1]+0.039*[#   3]
          +0.038*[#  12]+0.013*[#   4]+0.013*[#  13]
    |psi|^2 = 0.292
==== e(  15) =    36.63256 eV ==== 
     psi = 0.006*[#   2]+0.007*[#  11]
    |psi|^2 = 0.013
==== e(  16) =    38.68603 eV ==== 
     psi = 0.314*[#   4]+0.300*[#  13]+0.105*[#   3]+0.100*[#  12]+0.039*[#   2]
          +0.038*[#  11]
    |psi|^2 = 0.895
==== e(  17) =    38.69990 eV ==== 
     psi = 0.369*[#   2]+0.357*[#  11]+0.034*[#   3]+0.034*[#  12]+0.011*[#   4]
          +0.011*[#  13]
    |psi|^2 = 0.817
==== e(  18) =    39.06304 eV ==== 
     psi = 0.052*[#  10]+0.051*[#   1]+0.050*[#  12]+0.050*[#   3]+0.017*[#  13]
          +0.017*[#   4]+0.009*[#  11]+0.008*[#   2]
    |psi|^2 = 0.253

 k =   0.0000000000  0.4618802154 -0.1632993162
==== e(   1) =     5.92881 eV ==== 
     psi = 0.183*[#  13]+0.179*[#   4]+0.153*[#  10]+0.150*[#   1]+0.110*[#  12]
          +0.108*[#   3]+0.037*[#  11]+0.036*[#   2]+0.008*[#  17]+0.008*[#   8]
          +0.006*[#   9]+0.004*[#   7]+0.004*[#  18]+0.003*[#  16]+0.003*[#   6]
          +0.003*[#  14]+0.002*[#  15]+0.002*[#   5]
    |psi|^2 = 0.997
==== e(   2) =     8.14166 eV ==== 
     psi = 0.194*[#   6]+0.163*[#   9]+0.115*[#   7]+0.105*[#   5]+0.069*[#  15]
          +0.057*[#  16]+0.054*[#   8]+0.048*[#  14]+0.048*[#   1]+0.040*[#  10]
          +0.038*[#  18]+0.014*[#   4]+0.014*[#  17]+0.008*[#  13]+0.007*[#  12]
          +0.007*[#   3]
    |psi|^2 = 0.981
==== e(   3) =     9.11665 eV ==== 
     psi = 0.208*[#   7]+0.195*[#   9]+0.113*[#  16]+0.111*[#  17]+0.081*[#   8]
          +0.072*[#  18]+0.070*[#   6]+0.063*[#  15]+0.033*[#   3]+0.018*[#  12]
          +0.016*[#   4]+0.010*[#   2]+0.007*[#  11]+0.007*[#  14]+0.006*[#  13]
          +0.001*[#  10]
    |psi|^2 = 1.013
==== e(   4) =     9.84095 eV ==== 
     psi = 0.295*[#   8]+0.128*[#   5]+0.108*[#  16]+0.106*[#   9]+0.075*[#  17]
          +0.072*[#  18]+0.058*[#   7]+0.043*[#  15]+0.033*[#   6]+0.024*[#  12]
          +0.018*[#  13]+0.018*[#  14]+0.014*[#   2]+0.014*[#  11]+0.009*[#   4]
          +0.004*[#   3]+0.001*[#   1]
    |psi|^2 = 1.020
==== e(   5) =    10.10311 eV ==== 
     psi = 0.281*[#  17]+0.107*[#  18]+0.103*[#  16]+0.079*[#  14]+0.062*[#   8]
          +0.053*[#   7]+0.049*[#   5]+0.044*[#   9]+0.041*[#  15]+0.041*[#   3]
          +0.032*[#  12]+0.027*[#   6]+0.017*[#  13]+0.016*[#  11]+0.015*[#   4]
          +0.012*[#   2]+0.011*[#  10]+0.009*[#   1]
    |psi|^2 = 0.999
==== e(   6) =    10.36877 eV ==== 
     psi = 0.259*[#   5]+0.249*[#  14]+0.126*[#  15]+0.099*[#   8]+0.070*[#  17]
          +0.065*[#   6]+0.051*[#   2]+0.048*[#  11]+0.045*[#  16]+0.033*[#   9]
          +0.027*[#   7]+0.027*[#  18]
    |psi|^2 = 1.098
==== e(   7) =    10.64129 eV ==== 
     psi = 0.236*[#  15]+0.157*[#  16]+0.151*[#   7]+0.137*[#   6]+0.103*[#  18]
          +0.092*[#  14]+0.039*[#  17]+0.025*[#   9]+0.024*[#   5]+0.021*[#   8]
          +0.004*[#  10]+0.004*[#   1]+0.002*[#  13]+0.001*[#   4]
    |psi|^2 = 0.998
==== e(   8) =    10.78643 eV ==== 
     psi = 0.229*[#   6]+0.193*[#   7]+0.174*[#   9]+0.115*[#   5]+0.085*[#  14]
          +0.058*[#   8]+0.052*[#  16]+0.046*[#  18]+0.030*[#  15]+0.016*[#  17]
          
    |psi|^2 = 0.999
==== e(   9) =    11.56645 eV ==== 
     psi = 0.202*[#  16]+0.127*[#  18]+0.115*[#  17]+0.104*[#   7]+0.104*[#   8]
          +0.081*[#  14]+0.081*[#  15]+0.078*[#   9]+0.062*[#   5]+0.036*[#   6]
          +0.002*[#  11]+0.002*[#   1]+0.002*[#  10]+0.002*[#  13]+0.001*[#  12]
          
    |psi|^2 = 1.000
==== e(  10) =    11.65561 eV ==== 
     psi = 0.314*[#  18]+0.162*[#  15]+0.107*[#  17]+0.105*[#  16]+0.090*[#  14]
          +0.090*[#   9]+0.039*[#   8]+0.039*[#   6]+0.026*[#   5]+0.025*[#   7]
          +0.003*[#  11]+0.001*[#  13]
    |psi|^2 = 1.002
==== e(  11) =    12.31799 eV ==== 
     psi = 0.235*[#  14]+0.219*[#   5]+0.126*[#   6]+0.100*[#   8]+0.091*[#  15]
          +0.086*[#  17]+0.042*[#   7]+0.039*[#   9]+0.031*[#  16]+0.029*[#  18]
          
    |psi|^2 = 1.000
==== e(  12) =    15.53928 eV ==== 
     psi = 0.164*[#   3]+0.162*[#  12]+0.070*[#   4]+0.069*[#  13]+0.067*[#   8]
          +0.064*[#  17]+0.047*[#  10]+0.047*[#   1]+0.046*[#  15]+0.036*[#   6]
          +0.035*[#  18]+0.028*[#   9]+0.017*[#  16]+0.014*[#   7]+0.003*[#   5]
          +0.002*[#  11]+0.001*[#  14]
    |psi|^2 = 0.871
==== e(  13) =    21.31853 eV ==== 
     psi = 0.231*[#  10]+0.226*[#   1]+0.124*[#   3]+0.124*[#  12]+0.091*[#   4]
          +0.091*[#  13]+0.024*[#  18]+0.017*[#   9]+0.010*[#  17]+0.009*[#  14]
          +0.008*[#   8]+0.007*[#   5]+0.007*[#  15]+0.004*[#   6]+0.002*[#  16]
          +0.002*[#   7]+0.001*[#   2]+0.001*[#  11]
    |psi|^2 = 0.982
==== e(  14) =    30.53810 eV ==== 
     psi = 0.151*[#   4]+0.143*[#   1]+0.127*[#  13]+0.100*[#  10]+0.055*[#   3]
          +0.046*[#  12]+0.036*[#  11]+0.036*[#   2]+0.002*[#   7]+0.002*[#  16]
          
    |psi|^2 = 0.702
==== e(  15) =    31.11656 eV ==== 
     psi = 0.294*[#  10]+0.255*[#   1]+0.078*[#  13]+0.057*[#   2]+0.056*[#   4]
          +0.050*[#  11]+0.045*[#  12]+0.035*[#   3]+0.002*[#   8]+0.002*[#  17]
          +0.001*[#  16]+0.001*[#  18]
    |psi|^2 = 0.880
==== e(  16) =    33.47647 eV ==== 
     psi = 0.078*[#   4]+0.077*[#  13]+0.047*[#   3]+0.046*[#  12]+0.021*[#   2]
          +0.020*[#  11]
    |psi|^2 = 0.293
==== e(  17) =    36.38614 eV ==== 
     psi = 0.032*[#  10]+0.030*[#   1]+0.024*[#  13]+0.024*[#   4]+0.010*[#   2]
          +0.010*[#  11]+0.009*[#  12]+0.009*[#   3]
    |psi|^2 = 0.148
==== e(  18) =    38.43240 eV ==== 
     psi = 0.009*[#  10]+0.009*[#   1]+0.003*[#   4]+0.003*[#  13]+0.001*[#   3]
          +0.001*[#  12]
    |psi|^2 = 0.027

 k =   0.2000000000  0.3464101615 -0.2449489743
==== e(   1) =     5.84208 eV ==== 
     psi = 0.186*[#  13]+0.182*[#   4]+0.149*[#  10]+0.145*[#   1]+0.095*[#  11]
          +0.094*[#   2]+0.062*[#  12]+0.061*[#   3]+0.006*[#   7]+0.005*[#   9]
          +0.005*[#  16]+0.002*[#   6]+0.002*[#  18]+0.002*[#   8]+0.002*[#  15]
          
    |psi|^2 = 0.998
==== e(   2) =     8.28130 eV ==== 
     psi = 0.275*[#   9]+0.148*[#   6]+0.108*[#   5]+0.096*[#   8]+0.072*[#  18]
          +0.066*[#  11]+0.066*[#   2]+0.056*[#   7]+0.048*[#   1]+0.039*[#  10]
          +0.035*[#  15]+0.033*[#  14]+0.027*[#  17]+0.018*[#   4]+0.012*[#  16]
          +0.011*[#  13]+0.010*[#   3]+0.007*[#  12]
    |psi|^2 = 1.126
==== e(   3) =     9.23725 eV ==== 
     psi = 0.323*[#   7]+0.127*[#   6]+0.119*[#  17]+0.104*[#  16]+0.067*[#  15]
          +0.063*[#   5]+0.062*[#  18]+0.051*[#   9]+0.022*[#   8]+0.021*[#   3]
          +0.014*[#  12]+0.013*[#   4]+0.007*[#  14]+0.005*[#  13]+0.004*[#   2]
          +0.002*[#  11]
    |psi|^2 = 1.004
==== e(   4) =     9.48898 eV ==== 
     psi = 0.232*[#   8]+0.177*[#  16]+0.161*[#  17]+0.123*[#  14]+0.084*[#   9]
          +0.060*[#  15]+0.057*[#  18]+0.053*[#   5]+0.026*[#   6]+0.012*[#   7]
          +0.006*[#  12]+0.005*[#  13]+0.001*[#   3]
    |psi|^2 = 0.998
==== e(   5) =    10.20122 eV ==== 
     psi = 0.247*[#  17]+0.240*[#   5]+0.096*[#   8]+0.090*[#   9]+0.082*[#  18]
          +0.057*[#   6]+0.047*[#  12]+0.046*[#   3]+0.024*[#   7]+0.016*[#   4]
          +0.016*[#  13]+0.013*[#  16]+0.009*[#  15]+0.008*[#   2]+0.007*[#  11]
          +0.002*[#  10]
    |psi|^2 = 1.000
==== e(   6) =    10.26365 eV ==== 
     psi = 0.296*[#  14]+0.199*[#   8]+0.180*[#   5]+0.092*[#  15]+0.066*[#   9]
          +0.061*[#   7]+0.050*[#   2]+0.043*[#  11]+0.035*[#  16]+0.020*[#   6]
          +0.014*[#  12]+0.012*[#   3]+0.005*[#  13]+0.004*[#  17]+0.004*[#   4]
          +0.004*[#  18]
    |psi|^2 = 1.087
==== e(   7) =    10.61097 eV ==== 
     psi = 0.203*[#   7]+0.173*[#  15]+0.165*[#  14]+0.161*[#   9]+0.097*[#   6]
          +0.074*[#   8]+0.058*[#  16]+0.042*[#  17]+0.018*[#  18]+0.004*[#   2]
          +0.003*[#   1]+0.001*[#  11]+0.001*[#  10]
    |psi|^2 = 1.003
==== e(   8) =    10.63248 eV ==== 
     psi = 0.296*[#   6]+0.178*[#  16]+0.142*[#  15]+0.125*[#  18]+0.099*[#   7]
          +0.058*[#  17]+0.042*[#   5]+0.034*[#   9]+0.014*[#  11]+0.013*[#   2]
          +0.012*[#   8]+0.006*[#  14]+0.004*[#   1]+0.002*[#   4]+0.001*[#   3]
          
    |psi|^2 = 1.026
==== e(   9) =    11.17714 eV ==== 
     psi = 0.234*[#  16]+0.208*[#  18]+0.134*[#   7]+0.101*[#  15]+0.081*[#   9]
          +0.077*[#  17]+0.069*[#   8]+0.047*[#   6]+0.016*[#   5]+0.009*[#  14]
          +0.008*[#  13]+0.006*[#  11]+0.006*[#  10]+0.003*[#  12]
    |psi|^2 = 1.000
==== e(  10) =    11.36595 eV ==== 
     psi = 0.276*[#  18]+0.228*[#  15]+0.146*[#  16]+0.101*[#  17]+0.065*[#   9]
          +0.054*[#  14]+0.049*[#   6]+0.034*[#   7]+0.022*[#   5]+0.022*[#   8]
          +0.005*[#  11]+0.001*[#  13]
    |psi|^2 = 1.004
==== e(  11) =    12.14673 eV ==== 
     psi = 0.276*[#  14]+0.249*[#   5]+0.107*[#   6]+0.098*[#   8]+0.081*[#  17]
          +0.065*[#  15]+0.036*[#   7]+0.035*[#   9]+0.028*[#  18]+0.025*[#  16]
          
    |psi|^2 = 1.000
==== e(  12) =    16.39126 eV ==== 
     psi = 0.235*[#   3]+0.232*[#  12]+0.082*[#   4]+0.081*[#  13]+0.069*[#   8]
          +0.068*[#  17]+0.033*[#  10]+0.032*[#   1]+0.032*[#  18]+0.029*[#   9]
          +0.024*[#  14]+0.022*[#   5]+0.005*[#   6]+0.003*[#  15]+0.003*[#   7]
          +0.002*[#  16]
    |psi|^2 = 0.953
==== e(  13) =    20.39623 eV ==== 
     psi = 0.269*[#  10]+0.265*[#   1]+0.068*[#   4]+0.067*[#  13]+0.053*[#   2]
          +0.053*[#  11]+0.039*[#   3]+0.039*[#  12]+0.031*[#  18]+0.022*[#  15]
          +0.021*[#   9]+0.016*[#   6]+0.012*[#  17]+0.008*[#   8]+0.007*[#  16]
          +0.006*[#   7]+0.006*[#  14]+0.004*[#   5]
    |psi|^2 = 0.985
==== e(  14) =    29.22324 eV ==== 
     psi = 0.177*[#   4]+0.172*[#  13]+0.129*[#   1]+0.124*[#  10]+0.077*[#  11]
          +0.077*[#   2]+0.066*[#   3]+0.064*[#  12]+0.004*[#  16]+0.003*[#   7]
          +0.001*[#  18]+0.001*[#   6]+0.001*[#  15]+0.001*[#   9]
    |psi|^2 = 0.899
==== e(  15) =    33.03406 eV ==== 
     psi = 0.135*[#  10]+0.132*[#   1]+0.103*[#  12]+0.101*[#   3]+0.082*[#  13]
          +0.080*[#   4]+0.066*[#   2]+0.065*[#  11]+0.001*[#   8]
    |psi|^2 = 0.768
==== e(  16) =    34.90395 eV ==== 
     psi = 0.073*[#   4]+0.069*[#  13]+0.044*[#   3]+0.042*[#  12]+0.023*[#  11]
          +0.022*[#   2]
    |psi|^2 = 0.275
==== e(  17) =    36.78037 eV ==== 
     psi = 0.019*[#   1]+0.018*[#  10]+0.015*[#   4]+0.014*[#  13]+0.006*[#   3]
          +0.006*[#  12]+0.005*[#   2]+0.005*[#  11]
    |psi|^2 = 0.087
==== e(  18) =    37.15944 eV ==== 
     psi = 0.211*[#  11]+0.199*[#   2]+0.066*[#  13]+0.062*[#   4]+0.040*[#  12]
          +0.037*[#   3]
    |psi|^2 = 0.617

 k =   0.4000000000  0.2309401077 -0.3265986324
==== e(   1) =     6.35562 eV ==== 
     psi = 0.150*[#  13]+0.149*[#   4]+0.120*[#  11]+0.119*[#   2]+0.116*[#   1]
          +0.113*[#  10]+0.090*[#  12]+0.089*[#   3]+0.012*[#   7]+0.009*[#  16]
          +0.007*[#   6]+0.006*[#  17]+0.006*[#  15]+0.005*[#   8]+0.004*[#   9]
          +0.003*[#  18]
    |psi|^2 = 0.999
==== e(   2) =     8.29215 eV ==== 
     psi = 0.257*[#   9]+0.181*[#  11]+0.179*[#   2]+0.106*[#   8]+0.103*[#   5]
          +0.086*[#   6]+0.058*[#   3]+0.057*[#   1]+0.056*[#  10]+0.054*[#  12]
          +0.052*[#  18]+0.044*[#   4]+0.040*[#  13]+0.029*[#   7]+0.021*[#  17]
          +0.015*[#  14]+0.013*[#  15]+0.006*[#  16]
    |psi|^2 = 1.357
==== e(   3) =     9.33475 eV ==== 
     psi = 0.266*[#  17]+0.129*[#  14]+0.118*[#   7]+0.113*[#  18]+0.095*[#   6]
          +0.081*[#   5]+0.044*[#   3]+0.042*[#  12]+0.026*[#   9]+0.018*[#   4]
          +0.018*[#  13]+0.015*[#   8]+0.011*[#  10]+0.009*[#   1]+0.007*[#  16]
          +0.004*[#  15]
    |psi|^2 = 0.997
==== e(   4) =     9.57713 eV ==== 
     psi = 0.276*[#   7]+0.137*[#  16]+0.118*[#   9]+0.092*[#   6]+0.090*[#   8]
          +0.080*[#   5]+0.046*[#  15]+0.040*[#  17]+0.036*[#  18]+0.030*[#  14]
          +0.016*[#   2]+0.015*[#  11]+0.012*[#   3]+0.011*[#  10]+0.010*[#  12]
          +0.006*[#   1]+0.005*[#   4]+0.003*[#  13]
    |psi|^2 = 1.023
==== e(   5) =     9.84423 eV ==== 
     psi = 0.252*[#   8]+0.179*[#  16]+0.126*[#  15]+0.098*[#   6]+0.093*[#   9]
          +0.071*[#  14]+0.041*[#   7]+0.038*[#  12]+0.030*[#   3]+0.023*[#   5]
          +0.013*[#  13]+0.011*[#  18]+0.011*[#   4]+0.005*[#  17]+0.004*[#  11]
          +0.003*[#   2]
    |psi|^2 = 0.999
==== e(   6) =    10.51674 eV ==== 
     psi = 0.282*[#   5]+0.145*[#   7]+0.138*[#   9]+0.104*[#  15]+0.101*[#   6]
          +0.059*[#  14]+0.058*[#   8]+0.044*[#  16]+0.044*[#  17]+0.033*[#  11]
          +0.025*[#   2]+0.022*[#  18]
    |psi|^2 = 1.057
==== e(   7) =    10.82015 eV ==== 
     psi = 0.299*[#  14]+0.113*[#   6]+0.108*[#   8]+0.102*[#   9]+0.092*[#  16]
          +0.088*[#   5]+0.067*[#  15]+0.062*[#  17]+0.041*[#   7]+0.025*[#  18]
          
    |psi|^2 = 0.999
==== e(   8) =    10.91447 eV ==== 
     psi = 0.225*[#  15]+0.160*[#  17]+0.158*[#   6]+0.152*[#  16]+0.136*[#  18]
          +0.073*[#   7]+0.039*[#   8]+0.017*[#   9]+0.010*[#   1]+0.006*[#   4]
          +0.004*[#   3]+0.004*[#   5]+0.003*[#  12]+0.002*[#  14]+0.001*[#  13]
          
    |psi|^2 = 0.992
==== e(   9) =    11.01010 eV ==== 
     psi = 0.286*[#  18]+0.165*[#  16]+0.156*[#   7]+0.096*[#  17]+0.072*[#   9]
          +0.068*[#   8]+0.059*[#  15]+0.058*[#   6]+0.011*[#  13]+0.007*[#  10]
          +0.006*[#  11]+0.004*[#  14]+0.004*[#  12]+0.001*[#   4]+0.002*[#   5]
          +0.001*[#   1]
    |psi|^2 = 0.999
==== e(  10) =    11.36589 eV ==== 
     psi = 0.268*[#  15]+0.179*[#   5]+0.126*[#  14]+0.118*[#  17]+0.108*[#  16]
          +0.078*[#  18]+0.040*[#   7]+0.036*[#   9]+0.033*[#   8]+0.014*[#   6]
          +0.007*[#  11]+0.001*[#   2]
    |psi|^2 = 1.007
==== e(  11) =    11.60352 eV ==== 
     psi = 0.198*[#  14]+0.162*[#   6]+0.132*[#  18]+0.103*[#   5]+0.088*[#  16]
          +0.085*[#   8]+0.067*[#  15]+0.061*[#   7]+0.057*[#   9]+0.047*[#  17]
          
    |psi|^2 = 1.000
==== e(  12) =    14.34298 eV ==== 
     psi = 0.132*[#   8]+0.127*[#  17]+0.120*[#   3]+0.115*[#  12]+0.089*[#  18]
          +0.068*[#   9]+0.062*[#  14]+0.055*[#   4]+0.055*[#  10]+0.055*[#   1]
          +0.053*[#  13]+0.053*[#   5]+0.003*[#   6]+0.003*[#   7]+0.002*[#  16]
          
    |psi|^2 = 0.994
==== e(  13) =    24.06849 eV ==== 
     psi = 0.170*[#  10]+0.169*[#   1]+0.110*[#  12]+0.108*[#   3]+0.090*[#   4]
          +0.090*[#  13]+0.087*[#  11]+0.086*[#   2]+0.013*[#  18]+0.011*[#  15]
          +0.010*[#   9]+0.009*[#   6]+0.007*[#  17]+0.006*[#   8]+0.004*[#  16]
          +0.003*[#   7]+0.001*[#  14]
    |psi|^2 = 0.975
==== e(  14) =    28.65679 eV ==== 
     psi = 0.194*[#  11]+0.192*[#   2]+0.176*[#   1]+0.175*[#  10]+0.155*[#   4]
          +0.152*[#  13]+0.058*[#   3]+0.057*[#  12]+0.004*[#  16]+0.004*[#   7]
          +0.002*[#  18]+0.002*[#   9]+0.001*[#  15]+0.001*[#   6]
    |psi|^2 = 1.176
==== e(  15) =    34.98740 eV ==== 
     psi = 0.193*[#  12]+0.191*[#   3]+0.162*[#  13]+0.161*[#   4]+0.058*[#   2]
          +0.057*[#  11]
    |psi|^2 = 0.826
==== e(  16) =    35.00269 eV ==== 
     psi = 0.091*[#   3]+0.088*[#  12]+0.059*[#   4]+0.056*[#  13]+0.020*[#  11]
          +0.019*[#   2]+0.001*[#  14]
    |psi|^2 = 0.336
==== e(  17) =    36.12818 eV ==== 

    |psi|^2 = 0.002
==== e(  18) =    36.79037 eV ==== 
     psi = 0.004*[#   1]+0.004*[#  10]
    |psi|^2 = 0.012

 k =   0.6000000000  0.1154700538 -0.4082482905
==== e(   1) =     7.24621 eV ==== 
     psi = 0.131*[#  12]+0.107*[#   4]+0.107*[#   1]+0.097*[#   2]+0.096*[#  13]
          +0.096*[#   3]+0.095*[#  11]+0.069*[#  10]+0.044*[#   7]+0.043*[#   6]
          +0.031*[#  16]+0.028*[#  15]+0.023*[#  17]+0.015*[#   8]+0.008*[#  18]
          +0.006*[#   9]+0.003*[#   5]
    |psi|^2 = 0.999
==== e(   2) =     7.77889 eV ==== 
     psi = 0.225*[#  11]+0.215*[#   3]+0.183*[#   2]+0.161*[#  12]+0.119*[#  10]
          +0.115*[#  13]+0.110*[#   4]+0.079*[#   1]+0.059*[#   8]+0.040*[#   9]
          +0.037*[#   5]+0.028*[#  17]+0.017*[#  14]+0.014*[#  18]+0.001*[#  16]
          
    |psi|^2 = 1.405
==== e(   3) =     8.75458 eV ==== 
     psi = 0.222*[#   9]+0.165*[#  17]+0.140*[#   5]+0.110*[#   6]+0.100*[#   8]
          +0.094*[#  14]+0.064*[#  18]+0.052*[#   7]+0.018*[#  16]+0.016*[#  12]
          +0.006*[#  15]+0.005*[#  13]+0.001*[#   2]+0.001*[#   1]+0.001*[#  11]
          
    |psi|^2 = 0.998
==== e(   4) =     9.67266 eV ==== 
     psi = 0.238*[#   7]+0.209*[#   9]+0.172*[#   8]+0.108*[#   2]+0.093*[#   6]
          +0.087*[#  18]+0.067*[#   5]+0.048*[#  11]+0.043*[#  15]+0.030*[#  17]
          +0.016*[#  16]+0.016*[#  14]+0.010*[#   4]+0.004*[#  13]+0.004*[#   3]
          +0.002*[#  12]
    |psi|^2 = 1.147
==== e(   5) =    10.11046 eV ==== 
     psi = 0.281*[#  16]+0.187*[#  15]+0.178*[#   7]+0.146*[#   6]+0.100*[#  14]
          +0.043*[#   8]+0.015*[#   5]+0.015*[#   9]+0.010*[#  18]+0.006*[#  12]
          +0.005*[#  17]+0.004*[#   3]+0.003*[#   4]+0.002*[#  10]+0.002*[#  13]
          
    |psi|^2 = 0.999
==== e(   6) =    10.59003 eV ==== 
     psi = 0.293*[#  16]+0.193*[#  18]+0.107*[#   7]+0.101*[#  15]+0.065*[#  17]
          +0.058*[#   9]+0.050*[#   8]+0.050*[#   6]+0.021*[#  13]+0.014*[#  10]
          +0.009*[#  12]+0.008*[#   1]+0.006*[#   3]+0.006*[#  11]+0.005*[#   4]
          +0.001*[#   2]
    |psi|^2 = 0.986
==== e(   7) =    10.82012 eV ==== 
     psi = 0.301*[#   5]+0.223*[#   7]+0.172*[#   9]+0.166*[#   6]+0.063*[#   8]
          +0.049*[#  14]+0.015*[#  11]+0.008*[#  17]+0.007*[#  18]+0.005*[#  16]
          +0.005*[#   2]+0.003*[#  15]
    |psi|^2 = 1.018
==== e(   8) =    11.08953 eV ==== 
     psi = 0.200*[#   5]+0.171*[#  15]+0.142*[#  14]+0.107*[#  17]+0.106*[#   6]
          +0.086*[#   8]+0.065*[#  16]+0.056*[#  18]+0.035*[#   7]+0.031*[#   9]
          +0.017*[#  11]+0.011*[#   2]
    |psi|^2 = 1.027
==== e(   9) =    11.36655 eV ==== 
     psi = 0.419*[#  14]+0.180*[#  18]+0.135*[#  16]+0.105*[#  15]+0.086*[#  17]
          +0.020*[#   7]+0.018*[#   9]+0.017*[#   6]+0.010*[#   8]+0.005*[#   5]
          
    |psi|^2 = 0.999
==== e(  10) =    11.78376 eV ==== 
     psi = 0.259*[#  17]+0.170*[#  18]+0.138*[#  15]+0.093*[#   8]+0.071*[#   9]
          +0.058*[#  16]+0.055*[#   6]+0.032*[#  12]+0.019*[#   4]+0.019*[#   7]
          +0.016*[#   3]+0.016*[#   1]+0.012*[#  13]+0.008*[#  14]+0.003*[#   5]
          +0.003*[#  10]+0.001*[#  11]+0.001*[#   2]
    |psi|^2 = 0.975
==== e(  11) =    11.87368 eV ==== 
     psi = 0.207*[#  15]+0.198*[#   6]+0.147*[#   5]+0.083*[#  16]+0.083*[#   8]
          +0.071*[#   7]+0.062*[#  14]+0.056*[#  17]+0.046*[#  18]+0.043*[#   9]
          +0.017*[#   2]+0.010*[#  11]
    |psi|^2 = 1.024
==== e(  12) =    13.06768 eV ==== 
     psi = 0.220*[#   8]+0.161*[#  17]+0.153*[#  18]+0.104*[#   9]+0.087*[#  14]
          +0.077*[#   5]+0.054*[#   3]+0.041*[#  11]+0.036*[#  12]+0.032*[#   2]
          +0.028*[#   4]+0.024*[#  13]+0.016*[#  10]+0.013*[#   1]+0.009*[#   6]
          +0.007*[#   7]+0.005*[#  16]+0.003*[#  15]
    |psi|^2 = 1.072
==== e(  13) =    28.62509 eV ==== 
     psi = 0.186*[#   4]+0.174*[#  13]+0.144*[#  11]+0.144*[#   2]+0.115*[#  12]
          +0.104*[#   3]+0.007*[#  18]+0.006*[#   9]+0.004*[#  17]+0.004*[#   8]
          +0.004*[#  15]+0.003*[#   6]+0.002*[#  16]+0.002*[#   7]
    |psi|^2 = 0.901
==== e(  14) =    29.18570 eV ==== 
     psi = 0.354*[#   1]+0.342*[#  10]+0.228*[#  11]+0.208*[#   2]+0.067*[#  12]
          +0.060*[#   3]+0.041*[#  13]+0.037*[#   4]+0.003*[#  16]+0.002*[#   7]
          +0.002*[#  15]+0.001*[#   6]+0.001*[#  14]+0.001*[#   5]
    |psi|^2 = 1.349
==== e(  15) =    30.27609 eV ==== 
     psi = 0.221*[#   3]+0.205*[#  12]+0.128*[#  13]+0.122*[#   4]+0.102*[#  10]
          +0.090*[#   1]+0.004*[#  18]+0.003*[#   9]+0.001*[#  17]+0.001*[#  15]
          
    |psi|^2 = 0.882
==== e(  16) =    33.60619 eV ==== 
     psi = 0.086*[#   4]+0.085*[#  13]+0.052*[#   3]+0.051*[#  12]+0.026*[#  11]
          +0.022*[#   2]+0.002*[#  14]+0.002*[#   5]
    |psi|^2 = 0.328
==== e(  17) =    34.81626 eV ==== 
     psi = 0.034*[#  10]+0.033*[#   1]+0.005*[#  13]+0.005*[#   4]+0.004*[#  11]
          +0.004*[#   2]+0.002*[#   3]+0.002*[#  12]
    |psi|^2 = 0.091
==== e(  18) =    36.89462 eV ==== 
     psi = 0.082*[#   1]+0.082*[#  10]+0.008*[#  13]+0.007*[#  12]+0.007*[#   4]
          +0.007*[#  11]+0.007*[#   2]+0.007*[#   3]
    |psi|^2 = 0.209

 k =   0.8000000000  0.0000000000 -0.4898979486
==== e(   1) =     6.64456 eV ==== 
     psi = 0.184*[#  12]+0.178*[#   3]+0.149*[#   4]+0.148*[#  13]+0.124*[#   1]
          +0.118*[#  10]+0.024*[#  17]+0.021*[#   8]+0.008*[#   5]+0.008*[#  14]
          +0.008*[#  18]+0.007*[#   9]+0.005*[#   2]+0.004*[#  11]+0.004*[#   7]
          +0.003*[#  15]+0.003*[#  16]+0.002*[#   6]
    |psi|^2 = 0.998
==== e(   2) =     7.89025 eV ==== 
     psi = 0.163*[#   6]+0.124*[#   7]+0.085*[#  16]+0.074*[#  15]+0.062*[#  10]
          +0.059*[#   1]+0.058*[#   9]+0.055*[#   3]+0.051*[#  12]+0.043*[#  11]
          +0.043*[#   5]+0.041*[#   4]+0.039*[#   2]+0.038*[#  13]+0.032*[#   8]
          +0.019*[#  14]+0.007*[#  17]+0.006*[#  18]
    |psi|^2 = 1.003
==== e(   3) =     8.93511 eV ==== 
     psi = 0.299*[#   9]+0.177*[#  17]+0.134*[#   8]+0.065*[#   5]+0.064*[#  18]
          +0.047*[#  14]+0.044*[#   6]+0.041*[#   7]+0.041*[#   2]+0.039*[#   3]
          +0.037*[#  11]+0.020*[#  12]+0.017*[#  15]+0.014*[#   4]+0.011*[#  13]
          +0.006*[#  16]+0.005*[#  10]+0.001*[#   1]
    |psi|^2 = 1.062
==== e(   4) =     9.62807 eV ==== 
     psi = 0.209*[#   7]+0.204*[#   8]+0.130*[#   9]+0.125*[#   5]+0.095*[#   2]
          +0.088*[#  11]+0.085*[#  18]+0.075*[#   6]+0.031*[#  17]+0.026*[#  12]
          +0.026*[#  15]+0.021*[#  14]+0.015*[#   4]+0.013*[#  16]+0.012*[#  13]
          +0.007*[#   3]+0.005*[#   1]
    |psi|^2 = 1.171
==== e(   5) =    10.22864 eV ==== 
     psi = 0.359*[#  16]+0.174*[#  18]+0.120*[#  15]+0.115*[#  17]+0.039*[#   9]
          +0.035*[#   7]+0.024*[#  13]+0.020*[#   8]+0.019*[#  14]+0.016*[#  10]
          +0.016*[#  11]+0.015*[#   3]+0.013*[#   6]+0.011*[#   1]+0.009*[#  12]
          +0.006*[#   4]+0.006*[#   2]
    |psi|^2 = 0.999
==== e(   6) =    10.40654 eV ==== 
     psi = 0.240*[#  14]+0.210*[#   5]+0.123*[#  15]+0.094*[#   8]+0.094*[#   6]
          +0.086*[#  17]+0.052*[#  16]+0.037*[#   9]+0.033*[#  18]+0.031*[#   7]
          +0.020*[#   2]+0.016*[#  11]
    |psi|^2 = 1.035
==== e(   7) =    10.45740 eV ==== 
     psi = 0.210*[#   7]+0.203*[#  15]+0.174*[#   6]+0.159*[#  16]+0.083*[#  14]
          +0.078*[#  18]+0.026*[#  17]+0.020*[#   8]+0.020*[#   5]+0.007*[#   9]
          +0.005*[#  10]+0.003*[#   4]+0.003*[#   1]+0.002*[#  12]+0.002*[#  13]
          +0.001*[#   3]
    |psi|^2 = 0.996
==== e(   8) =    10.86937 eV ==== 
     psi = 0.244*[#   5]+0.238*[#   7]+0.204*[#   6]+0.192*[#   9]+0.066*[#   8]
          +0.025*[#  14]+0.010*[#  18]+0.009*[#  16]+0.005*[#  15]+0.004*[#  17]
          
    |psi|^2 = 0.999
==== e(   9) =    11.43141 eV ==== 
     psi = 0.279*[#  14]+0.215*[#  18]+0.197*[#  16]+0.183*[#  15]+0.072*[#  17]
          +0.014*[#   7]+0.014*[#   5]+0.011*[#   6]+0.009*[#   9]+0.003*[#   8]
          
    |psi|^2 = 0.999
==== e(  10) =    12.00416 eV ==== 
     psi = 0.278*[#  17]+0.186*[#  18]+0.147*[#   8]+0.112*[#   9]+0.073*[#   5]
          +0.067*[#  14]+0.036*[#  16]+0.021*[#  12]+0.018*[#  15]+0.013*[#   7]
          +0.013*[#   4]+0.010*[#   1]+0.008*[#  13]+0.006*[#   3]+0.006*[#   6]
          
    |psi|^2 = 0.996
==== e(  11) =    12.22674 eV ==== 
     psi = 0.186*[#  14]+0.184*[#   5]+0.140*[#   6]+0.124*[#  15]+0.112*[#   8]
          +0.079*[#  17]+0.048*[#   7]+0.045*[#   9]+0.042*[#  16]+0.037*[#  18]
          +0.003*[#   2]+0.001*[#  11]
    |psi|^2 = 1.004
==== e(  12) =    13.20700 eV ==== 
     psi = 0.139*[#   8]+0.097*[#  15]+0.092*[#  17]+0.089*[#  18]+0.085*[#   3]
          +0.070*[#  12]+0.069*[#   6]+0.055*[#   9]+0.044*[#   4]+0.041*[#  13]
          +0.034*[#  16]+0.033*[#  10]+0.030*[#   1]+0.026*[#   7]+0.016*[#  11]
          +0.009*[#   5]
    |psi|^2 = 0.930
==== e(  13) =    25.49795 eV ==== 
     psi = 0.188*[#  12]+0.185*[#   3]+0.160*[#  10]+0.155*[#   1]+0.118*[#   4]
          +0.116*[#  13]+0.011*[#  18]+0.008*[#   9]+0.004*[#  17]+0.003*[#   8]
          +0.003*[#  14]+0.003*[#   5]+0.003*[#  15]+0.002*[#   6]+0.001*[#  16]
          
    |psi|^2 = 0.962
==== e(  14) =    29.60482 eV ==== 
     psi = 0.238*[#   1]+0.223*[#  10]+0.110*[#   4]+0.107*[#  13]+0.072*[#  11]
          +0.067*[#   2]+0.037*[#   3]+0.036*[#  12]+0.002*[#  17]+0.002*[#   8]
          +0.002*[#  16]+0.002*[#   7]+0.002*[#  18]+0.002*[#   9]
    |psi|^2 = 0.904
==== e(  15) =    32.48606 eV ==== 
     psi = 0.117*[#  10]+0.108*[#   1]+0.067*[#  13]+0.064*[#   4]+0.055*[#   2]
          +0.053*[#  11]+0.024*[#  12]+0.022*[#   3]
    |psi|^2 = 0.514
==== e(  16) =    33.05705 eV ==== 
     psi = 0.083*[#   4]+0.082*[#  13]+0.050*[#   3]+0.049*[#  12]+0.038*[#   2]
          +0.035*[#  11]+0.001*[#  14]+0.001*[#   5]
    |psi|^2 = 0.340
==== e(  17) =    34.03534 eV ==== 
     psi = 0.100*[#   3]+0.098*[#  12]+0.082*[#  10]+0.078*[#   1]+0.043*[#  13]
          +0.043*[#   4]+0.040*[#   2]+0.039*[#  11]
    |psi|^2 = 0.526
==== e(  18) =    36.59105 eV ==== 
     psi = 0.068*[#   1]+0.067*[#  10]+0.030*[#  13]+0.028*[#   4]+0.014*[#  11]
          +0.013*[#   2]+0.010*[#  12]+0.010*[#   3]
    |psi|^2 = 0.240

 k =   0.0000000000  0.9237604307 -0.3265986324
==== e(   1) =     7.29492 eV ==== 
     psi = 0.221*[#  17]+0.205*[#   7]+0.114*[#   1]+0.082*[#   9]+0.074*[#  18]
          +0.070*[#   6]+0.063*[#  15]+0.029*[#   8]+0.029*[#  14]+0.028*[#  16]
          +0.019*[#  12]+0.018*[#  13]+0.016*[#   5]+0.011*[#  10]+0.011*[#   4]
          +0.005*[#   2]+0.004*[#   3]
    |psi|^2 = 0.999
==== e(   2) =     7.47544 eV ==== 
     psi = 0.239*[#  16]+0.141*[#   8]+0.128*[#   6]+0.108*[#  10]+0.089*[#  15]
          +0.085*[#   7]+0.054*[#   9]+0.042*[#  14]+0.038*[#  18]+0.020*[#  17]
          +0.015*[#   3]+0.013*[#   4]+0.012*[#  13]+0.005*[#   1]+0.004*[#  12]
          +0.003*[#   2]+0.003*[#  11]
    |psi|^2 = 0.999
==== e(   3) =     8.04935 eV ==== 
     psi = 0.230*[#   5]+0.204*[#   8]+0.120*[#   9]+0.107*[#  17]+0.084*[#  14]
          +0.084*[#   7]+0.079*[#  18]+0.049*[#   6]+0.008*[#   3]+0.008*[#  15]
          +0.007*[#   4]+0.007*[#  16]+0.007*[#  10]+0.005*[#  11]+0.003*[#   1]
          +0.002*[#  12]
    |psi|^2 = 1.003
==== e(   4) =     9.82138 eV ==== 
     psi = 0.158*[#  15]+0.152*[#   6]+0.152*[#  14]+0.125*[#   5]+0.099*[#  17]
          +0.094*[#   8]+0.060*[#  16]+0.058*[#   7]+0.052*[#  18]+0.050*[#   9]
          +0.003*[#   2]+0.003*[#  11]
    |psi|^2 = 1.006
==== e(   5) =     9.96831 eV ==== 
     psi = 0.272*[#  16]+0.216*[#  15]+0.177*[#   6]+0.147*[#   7]+0.068*[#  14]
          +0.055*[#   8]+0.034*[#   9]+0.014*[#   5]+0.010*[#  18]+0.006*[#  17]
          
    |psi|^2 = 0.999
==== e(   6) =    11.54542 eV ==== 
     psi = 0.426*[#   9]+0.159*[#  17]+0.142*[#   8]+0.069*[#   7]+0.053*[#  18]
          +0.038*[#   6]+0.027*[#   4]+0.019*[#  14]+0.019*[#  15]+0.009*[#   3]
          +0.007*[#  16]+0.006*[#  12]+0.006*[#   1]+0.003*[#  13]+0.002*[#   5]
          
    |psi|^2 = 0.986
==== e(   7) =    11.77715 eV ==== 
     psi = 0.288*[#   6]+0.274*[#   7]+0.141*[#   5]+0.113*[#   9]+0.054*[#  15]
          +0.048*[#  14]+0.042*[#   8]+0.020*[#  16]+0.013*[#   2]+0.009*[#  18]
          +0.007*[#  17]+0.002*[#  11]
    |psi|^2 = 1.011
==== e(   8) =    11.84962 eV ==== 
     psi = 0.199*[#  13]+0.197*[#   4]+0.120*[#  12]+0.120*[#   3]+0.061*[#  17]
          +0.050*[#   8]+0.031*[#   1]+0.029*[#  10]+0.021*[#  18]+0.020*[#   5]
          +0.017*[#   9]+0.017*[#  14]+0.013*[#   7]+0.011*[#   2]+0.011*[#  16]
          +0.010*[#   6]+0.008*[#  11]+0.006*[#  15]
    |psi|^2 = 0.940
==== e(   9) =    12.14669 eV ==== 
     psi = 0.284*[#   5]+0.243*[#  15]+0.173*[#  16]+0.097*[#  18]+0.051*[#   8]
          +0.051*[#  17]+0.033*[#   6]+0.025*[#   7]+0.023*[#  14]+0.020*[#   9]
          
    |psi|^2 = 1.000
==== e(  10) =    12.49954 eV ==== 
     psi = 0.303*[#  14]+0.143*[#   8]+0.140*[#  16]+0.139*[#  18]+0.089*[#  15]
          +0.060*[#  17]+0.051*[#   9]+0.017*[#   5]+0.016*[#  13]+0.006*[#  12]
          +0.004*[#   7]+0.004*[#   3]+0.003*[#   4]+0.002*[#  10]+0.002*[#   6]
          +0.001*[#   1]
    |psi|^2 = 0.980
==== e(  11) =    12.58105 eV ==== 
     psi = 0.384*[#  18]+0.208*[#  14]+0.161*[#  17]+0.143*[#   5]+0.025*[#   6]
          +0.019*[#  15]+0.015*[#  13]+0.015*[#  16]+0.014*[#  11]+0.011*[#   7]
          +0.006*[#   2]+0.005*[#  12]+0.003*[#   3]+0.003*[#   4]+0.001*[#  10]
          
    |psi|^2 = 1.016
==== e(  12) =    16.14811 eV ==== 
     psi = 0.148*[#   4]+0.145*[#  13]+0.110*[#   3]+0.109*[#  12]+0.047*[#  10]
          +0.045*[#   1]+0.025*[#  18]+0.023*[#   8]+0.023*[#  15]+0.023*[#  17]
          +0.017*[#   6]+0.016*[#   9]+0.008*[#  11]+0.008*[#  16]+0.007*[#   2]
          +0.006*[#   7]
    |psi|^2 = 0.761
==== e(  13) =    21.75237 eV ==== 
     psi = 0.385*[#   1]+0.354*[#  10]+0.048*[#   4]+0.041*[#  13]+0.029*[#   3]
          +0.025*[#  12]+0.017*[#  17]+0.015*[#   8]+0.011*[#  18]+0.009*[#   2]
          +0.009*[#   9]+0.008*[#   7]+0.008*[#  11]+0.008*[#  16]+0.005*[#  15]
          +0.005*[#  14]+0.005*[#   5]+0.005*[#   6]
    |psi|^2 = 0.986
==== e(  14) =    24.22634 eV ==== 
     psi = 0.332*[#  10]+0.302*[#   1]+0.061*[#  13]+0.058*[#   4]+0.027*[#  12]
          +0.025*[#   3]+0.012*[#  16]+0.010*[#   7]+0.006*[#   8]+0.006*[#  15]
          +0.005*[#   6]+0.005*[#  17]+0.005*[#  18]+0.005*[#   9]
    |psi|^2 = 0.859
==== e(  15) =    26.62273 eV ==== 
     psi = 0.273*[#  12]+0.273*[#   3]+0.155*[#  13]+0.153*[#   4]+0.056*[#   1]
          +0.054*[#  10]+0.019*[#  11]+0.018*[#   2]+0.003*[#  18]+0.002*[#   9]
          +0.002*[#  17]+0.002*[#   8]+0.002*[#  14]+0.002*[#   5]
    |psi|^2 = 1.013
==== e(  16) =    29.19773 eV ==== 
     psi = 0.101*[#   4]+0.100*[#  13]+0.061*[#   3]+0.060*[#  12]+0.003*[#   2]
          +0.003*[#  11]
    |psi|^2 = 0.331
==== e(  17) =    35.25347 eV ==== 
     psi = 0.011*[#  10]+0.011*[#   1]
    |psi|^2 = 0.026
==== e(  18) =    36.62389 eV ==== 

    |psi|^2 = 0.000

 k =   0.2000000000  0.8082903769 -0.4082482905
==== e(   1) =     7.57313 eV ==== 
     psi = 0.244*[#   7]+0.124*[#  17]+0.102*[#   1]+0.085*[#   6]+0.060*[#   9]
          +0.053*[#   5]+0.052*[#  13]+0.046*[#  18]+0.039*[#   8]+0.037*[#  10]
          +0.030*[#  15]+0.029*[#   4]+0.021*[#  14]+0.021*[#  12]+0.018*[#  11]
          +0.016*[#   2]+0.011*[#  16]+0.010*[#   3]
    |psi|^2 = 0.999
==== e(   2) =     7.75565 eV ==== 
     psi = 0.300*[#  16]+0.139*[#   6]+0.137*[#   7]+0.131*[#  15]+0.067*[#  10]
          +0.064*[#  14]+0.045*[#   8]+0.021*[#   9]+0.019*[#   4]+0.017*[#  18]
          +0.014*[#   2]+0.014*[#   5]+0.010*[#  17]+0.009*[#   3]+0.009*[#  13]
          +0.005*[#  11]+0.004*[#  12]
    |psi|^2 = 1.006
==== e(   3) =     8.29664 eV ==== 
     psi = 0.238*[#   8]+0.175*[#  17]+0.175*[#   5]+0.143*[#   9]+0.102*[#  18]
          +0.073*[#  14]+0.021*[#   3]+0.017*[#   4]+0.016*[#  12]+0.014*[#   7]
          +0.008*[#   6]+0.007*[#  13]+0.006*[#  11]+0.005*[#   2]+0.003*[#  10]
          +0.003*[#  16]+0.002*[#  15]
    |psi|^2 = 1.009
==== e(   4) =    10.09803 eV ==== 
     psi = 0.187*[#  16]+0.173*[#   8]+0.171*[#   6]+0.151*[#  15]+0.111*[#   7]
          +0.080*[#   9]+0.049*[#  17]+0.020*[#  14]+0.018*[#  18]+0.013*[#   4]
          +0.008*[#  12]+0.007*[#  11]+0.007*[#  13]+0.005*[#   3]
    |psi|^2 = 1.001
==== e(   5) =    10.25172 eV ==== 
     psi = 0.175*[#   6]+0.155*[#  17]+0.154*[#  15]+0.103*[#  14]+0.097*[#   8]
          +0.095*[#   5]+0.061*[#   7]+0.060*[#  18]+0.051*[#  16]+0.033*[#   9]
          +0.005*[#  13]+0.002*[#   4]+0.002*[#  11]+0.002*[#   3]+0.002*[#  12]
          
    |psi|^2 = 0.999
==== e(   6) =    10.29832 eV ==== 
     psi = 0.175*[#  14]+0.148*[#   9]+0.120*[#   5]+0.112*[#  17]+0.091*[#  13]
          +0.062*[#   8]+0.053*[#  18]+0.050*[#   4]+0.035*[#   3]+0.035*[#  12]
          +0.032*[#  16]+0.019*[#  15]+0.013*[#   1]+0.009*[#  10]+0.004*[#   6]
          +0.001*[#   7]
    |psi|^2 = 0.960
==== e(   7) =    11.25568 eV ==== 
     psi = 0.150*[#   9]+0.149*[#  18]+0.124*[#  15]+0.097*[#   4]+0.087*[#   8]
          +0.077*[#  17]+0.075*[#   7]+0.042*[#   6]+0.042*[#  16]+0.033*[#   3]
          +0.033*[#  11]+0.018*[#  12]+0.018*[#  14]+0.010*[#   1]+0.009*[#   5]
          +0.009*[#  10]+0.007*[#   2]+0.006*[#  13]
    |psi|^2 = 0.985
==== e(   8) =    11.66043 eV ==== 
     psi = 0.280*[#   6]+0.188*[#   7]+0.142*[#   9]+0.140*[#  15]+0.069*[#  16]
          +0.068*[#   8]+0.043*[#  18]+0.042*[#  17]+0.013*[#  14]+0.010*[#  11]
          +0.008*[#   5]
    |psi|^2 = 1.005
==== e(   9) =    12.11186 eV ==== 
     psi = 0.505*[#   5]+0.096*[#   8]+0.084*[#   9]+0.079*[#   7]+0.064*[#  15]
          +0.055*[#  14]+0.041*[#  17]+0.027*[#   6]+0.026*[#  18]+0.024*[#  16]
          
    |psi|^2 = 1.000
==== e(  10) =    12.49887 eV ==== 
     psi = 0.441*[#  14]+0.184*[#  16]+0.146*[#  18]+0.108*[#  15]+0.064*[#  17]
          +0.025*[#   6]+0.017*[#   7]+0.005*[#   8]+0.005*[#   9]
    |psi|^2 = 0.999
==== e(  11) =    12.99397 eV ==== 
     psi = 0.285*[#  18]+0.101*[#  13]+0.098*[#  17]+0.092*[#   9]+0.067*[#  16]
          +0.049*[#   7]+0.045*[#   4]+0.044*[#  15]+0.040*[#   8]+0.037*[#  12]
          +0.025*[#   3]+0.018*[#   6]+0.017*[#   1]+0.017*[#  10]+0.010*[#   5]
          +0.006*[#  14]+0.001*[#  11]
    |psi|^2 = 0.953
==== e(  12) =    18.57219 eV ==== 
     psi = 0.180*[#   4]+0.173*[#  13]+0.107*[#   3]+0.107*[#  12]+0.037*[#  18]
          +0.025*[#   9]+0.020*[#  17]+0.018*[#  15]+0.017*[#   8]+0.013*[#   6]
          +0.010*[#  16]+0.008*[#   7]
    |psi|^2 = 0.716
==== e(  13) =    22.79760 eV ==== 
     psi = 0.305*[#   3]+0.260*[#  12]+0.185*[#   4]+0.156*[#  13]+0.018*[#  17]
          +0.015*[#   8]+0.011*[#  18]+0.009*[#   9]+0.006*[#  14]+0.005*[#  10]
          +0.004*[#   5]+0.003*[#   7]+0.002*[#  16]+0.001*[#   6]+0.001*[#  15]
          
    |psi|^2 = 0.982
==== e(  14) =    23.33182 eV ==== 
     psi = 0.371*[#   1]+0.232*[#  10]+0.120*[#   2]+0.113*[#  12]+0.104*[#  11]
          +0.078*[#  13]+0.071*[#   3]+0.050*[#   4]+0.015*[#   8]+0.013*[#  17]
          +0.006*[#  18]+0.006*[#   9]+0.005*[#   5]+0.004*[#   7]+0.003*[#  15]
          +0.003*[#  16]+0.003*[#  14]+0.003*[#   6]
    |psi|^2 = 1.201
==== e(  15) =    23.72088 eV ==== 
     psi = 0.510*[#  10]+0.377*[#   1]+0.012*[#  16]+0.009*[#   7]+0.006*[#  15]
          +0.006*[#   6]+0.002*[#   8]+0.001*[#  14]
    |psi|^2 = 0.929
==== e(  16) =    30.19715 eV ==== 
     psi = 0.099*[#   4]+0.098*[#  13]+0.060*[#   3]+0.059*[#  12]+0.036*[#  11]
          +0.022*[#   2]+0.001*[#   6]+0.001*[#  15]
    |psi|^2 = 0.379
==== e(  17) =    35.54675 eV ==== 
     psi = 0.021*[#  10]+0.014*[#   1]+0.001*[#   3]
    |psi|^2 = 0.039
==== e(  18) =    35.66909 eV ==== 
     psi = 0.007*[#  12]+0.006*[#   1]+0.006*[#   3]+0.003*[#  13]+0.003*[#   4]
          +0.001*[#   2]+0.001*[#  11]
    |psi|^2 = 0.030

 k =   0.4000000000  0.6928203230 -0.4898979486
==== e(   1) =     7.89565 eV ==== 
     psi = 0.270*[#   7]+0.108*[#   6]+0.077*[#  13]+0.075*[#  16]+0.075*[#   1]
          +0.058*[#   4]+0.052*[#   5]+0.046*[#  10]+0.042*[#  11]+0.034*[#   2]
          +0.034*[#   9]+0.027*[#  15]+0.026*[#  12]+0.021*[#   3]+0.015*[#   8]
          +0.015*[#  14]+0.014*[#  18]+0.010*[#  17]
    |psi|^2 = 0.999
==== e(   2) =     8.44625 eV ==== 
     psi = 0.305*[#  16]+0.186*[#   7]+0.142*[#  15]+0.121*[#   6]+0.075*[#   5]
          +0.058*[#  14]+0.043*[#  10]+0.033*[#  11]+0.031*[#   2]+0.019*[#   4]
          +0.013*[#  18]+0.006*[#   3]+0.005*[#  17]+0.004*[#   9]+0.003*[#   8]
          +0.003*[#  13]+0.002*[#   1]+0.001*[#  12]
    |psi|^2 = 1.051
==== e(   3) =     8.76111 eV ==== 
     psi = 0.264*[#  17]+0.197*[#   8]+0.106*[#  18]+0.102*[#   9]+0.079*[#   5]
          +0.063*[#  14]+0.042*[#   3]+0.036*[#  12]+0.031*[#  15]+0.025*[#   4]
          +0.022*[#  16]+0.021*[#  13]+0.009*[#   2]+0.004*[#   6]+0.003*[#   7]
          +0.002*[#   1]+0.002*[#  10]+0.002*[#  11]
    |psi|^2 = 1.010
==== e(   4) =     9.11167 eV ==== 
     psi = 0.236*[#  17]+0.222*[#   8]+0.132*[#   9]+0.103*[#   5]+0.103*[#  14]
          +0.083*[#  18]+0.036*[#  13]+0.017*[#  12]+0.015*[#  16]+0.014*[#   4]
          +0.010*[#   3]+0.010*[#  15]+0.005*[#   2]+0.003*[#   1]+0.002*[#  11]
          +0.001*[#   7]
    |psi|^2 = 0.994
==== e(   5) =     9.75133 eV ==== 
     psi = 0.265*[#   9]+0.241*[#   6]+0.202*[#   8]+0.082*[#   7]+0.067*[#  16]
          +0.035*[#  15]+0.027*[#  13]+0.021*[#  11]+0.016*[#  12]+0.016*[#   1]
          +0.006*[#   5]+0.006*[#  18]+0.005*[#  17]+0.005*[#  14]+0.002*[#   4]
          +0.001*[#   2]
    |psi|^2 = 0.999
==== e(   6) =    10.72897 eV ==== 
     psi = 0.232*[#  18]+0.217*[#  15]+0.100*[#  17]+0.088*[#   4]+0.086*[#  16]
          +0.067*[#  14]+0.041*[#   7]+0.033*[#  11]+0.031*[#   9]+0.031*[#   3]
          +0.021*[#  10]+0.014*[#   6]+0.010*[#   8]+0.009*[#   1]+0.002*[#   5]
          +0.001*[#   2]
    |psi|^2 = 0.983
==== e(   7) =    10.89521 eV ==== 
     psi = 0.200*[#  15]+0.180*[#  14]+0.121*[#   5]+0.118*[#   6]+0.107*[#  17]
          +0.074*[#   8]+0.071*[#  16]+0.050*[#  18]+0.050*[#   2]+0.041*[#   7]
          +0.036*[#   9]
    |psi|^2 = 1.048
==== e(   8) =    11.27347 eV ==== 
     psi = 0.269*[#   6]+0.146*[#  15]+0.130*[#   7]+0.104*[#   9]+0.099*[#   8]
          +0.065*[#  16]+0.060*[#  17]+0.050*[#  18]+0.045*[#   2]+0.040*[#  14]
          +0.034*[#   5]
    |psi|^2 = 1.041
==== e(   9) =    12.08088 eV ==== 
     psi = 0.508*[#   5]+0.144*[#   9]+0.140*[#   7]+0.086*[#   8]+0.063*[#   6]
          +0.027*[#  14]+0.012*[#  15]+0.011*[#  17]+0.005*[#  18]+0.004*[#  16]
          
    |psi|^2 = 1.000
==== e(  10) =    12.54650 eV ==== 
     psi = 0.423*[#  14]+0.189*[#  16]+0.168*[#  18]+0.117*[#  15]+0.070*[#  17]
          +0.014*[#   6]+0.010*[#   7]+0.003*[#   9]+0.003*[#   8]
    |psi|^2 = 0.998
==== e(  11) =    13.26732 eV ==== 
     psi = 0.208*[#  18]+0.113*[#  13]+0.096*[#   9]+0.070*[#  17]+0.070*[#  16]
          +0.069*[#   7]+0.064*[#   4]+0.039*[#  15]+0.038*[#  12]+0.035*[#   1]
          +0.033*[#   8]+0.028*[#  10]+0.027*[#   6]+0.021*[#   3]+0.002*[#   5]
          +0.002*[#  14]+0.001*[#  11]
    |psi|^2 = 0.917
==== e(  12) =    18.94110 eV ==== 
     psi = 0.243*[#   4]+0.234*[#  13]+0.120*[#   3]+0.114*[#  12]+0.045*[#  18]
          +0.031*[#   9]+0.021*[#  17]+0.016*[#   8]+0.012*[#  16]+0.010*[#   7]
          +0.007*[#  14]+0.006*[#  15]+0.005*[#   5]+0.004*[#   6]
    |psi|^2 = 0.870
==== e(  13) =    20.38407 eV ==== 
     psi = 0.194*[#   1]+0.192*[#  10]+0.145*[#   3]+0.144*[#  12]+0.055*[#   4]
          +0.054*[#  13]+0.045*[#   2]+0.044*[#  11]+0.025*[#   8]+0.025*[#  17]
          +0.013*[#  18]+0.012*[#   9]+0.008*[#  16]+0.007*[#   5]+0.007*[#   7]
          +0.007*[#  14]+0.007*[#  15]+0.006*[#   6]
    |psi|^2 = 0.991
==== e(  14) =    25.47214 eV ==== 
     psi = 0.400*[#   1]+0.285*[#   3]+0.182*[#   2]+0.179*[#  11]+0.107*[#   4]
          +0.051*[#  13]+0.023*[#  12]+0.013*[#  17]+0.006*[#  15]+0.005*[#   7]
          +0.005*[#  18]+0.003*[#  10]+0.002*[#  16]+0.002*[#   5]+0.002*[#   6]
          
    |psi|^2 = 1.268
==== e(  15) =    25.53373 eV ==== 
     psi = 0.407*[#  10]+0.280*[#  12]+0.103*[#  13]+0.044*[#   4]+0.018*[#   2]
          +0.017*[#   3]+0.015*[#  11]+0.013*[#   8]+0.010*[#   1]+0.006*[#  16]
          +0.006*[#   6]+0.005*[#   9]+0.003*[#  15]+0.003*[#   7]+0.002*[#  14]
          
    |psi|^2 = 0.932
==== e(  16) =    32.22834 eV ==== 
     psi = 0.215*[#   2]+0.093*[#   4]+0.079*[#  13]+0.057*[#   3]+0.047*[#  12]
          +0.002*[#  11]+0.001*[#   6]+0.001*[#  15]
    |psi|^2 = 0.497
==== e(  17) =    32.48681 eV ==== 
     psi = 0.115*[#  10]+0.112*[#   1]+0.061*[#  12]+0.058*[#   3]+0.030*[#  13]
          +0.027*[#   4]+0.026*[#   2]+0.022*[#  11]
    |psi|^2 = 0.455
==== e(  18) =    33.05981 eV ==== 
     psi = 0.289*[#  11]+0.252*[#   2]+0.088*[#  13]+0.077*[#   4]+0.052*[#  12]
          +0.046*[#   3]+0.001*[#   5]+0.001*[#  14]
    |psi|^2 = 0.808

 k =   0.6000000000  0.5773502692 -0.5715476066
==== e(   1) =     7.54504 eV ==== 
     psi = 0.229*[#   7]+0.134*[#  16]+0.115*[#   6]+0.082*[#  15]+0.066*[#  17]
          +0.061*[#   1]+0.042*[#  13]+0.040*[#   9]+0.038*[#   4]+0.036*[#   8]
          +0.036*[#  18]+0.035*[#  10]+0.026*[#  11]+0.021*[#   2]+0.016*[#  12]
          +0.013*[#   3]+0.008*[#   5]
    |psi|^2 = 0.998
==== e(   2) =     8.18409 eV ==== 
     psi = 0.280*[#  17]+0.163*[#  14]+0.107*[#   5]+0.097*[#  18]+0.080*[#   9]
          +0.063*[#   8]+0.058*[#  16]+0.053*[#   6]+0.049*[#   7]+0.025*[#  11]
          +0.020*[#  15]+0.016*[#   2]+0.011*[#   3]+0.006*[#  10]+0.004*[#   1]
          +0.004*[#   4]+0.001*[#  13]
    |psi|^2 = 1.039
==== e(   3) =     8.35118 eV ==== 
     psi = 0.283*[#   8]+0.156*[#   5]+0.096*[#   9]+0.086*[#   7]+0.064*[#  16]
          +0.057*[#  10]+0.048*[#  17]+0.043*[#  18]+0.034*[#   6]+0.030*[#   1]
          +0.025*[#  15]+0.022*[#  12]+0.018*[#  14]+0.014*[#   3]+0.010*[#  13]
          +0.006*[#   4]
    |psi|^2 = 0.995
==== e(   4) =     9.32111 eV ==== 
     psi = 0.265*[#  16]+0.174*[#  15]+0.163*[#   7]+0.143*[#   6]+0.098*[#   8]
          +0.033*[#   9]+0.029*[#  14]+0.022*[#  17]+0.019*[#  12]+0.015*[#   4]
          +0.013*[#   3]+0.012*[#  13]+0.008*[#  18]+0.008*[#   2]+0.002*[#  10]
          +0.001*[#   5]
    |psi|^2 = 1.006
==== e(   5) =    10.16450 eV ==== 
     psi = 0.298*[#   9]+0.112*[#   6]+0.101*[#   8]+0.092*[#  17]+0.089*[#  18]
          +0.058*[#  13]+0.054*[#  14]+0.046*[#   7]+0.032*[#   5]+0.030*[#   3]
          +0.030*[#   4]+0.022*[#  12]+0.021*[#  11]+0.004*[#  10]+0.004*[#  15]
          +0.003*[#  16]+0.002*[#   2]
    |psi|^2 = 1.000
==== e(   6) =    10.55099 eV ==== 
     psi = 0.192*[#  15]+0.184*[#   6]+0.105*[#  14]+0.093*[#  17]+0.082*[#   8]
          +0.078*[#   7]+0.076*[#  16]+0.065*[#   5]+0.063*[#   9]+0.060*[#  18]
          +0.007*[#  11]+0.004*[#   2]
    |psi|^2 = 1.010
==== e(   7) =    11.43213 eV ==== 
     psi = 0.197*[#  18]+0.171*[#  15]+0.103*[#  17]+0.093*[#   4]+0.059*[#  16]
          +0.054*[#   8]+0.037*[#  14]+0.035*[#   3]+0.030*[#   6]+0.030*[#   1]
          +0.028*[#  12]+0.026*[#   9]+0.025*[#  10]+0.020*[#  13]+0.015*[#   7]
          
    |psi|^2 = 0.923
==== e(   8) =    11.63351 eV ==== 
     psi = 0.220*[#   6]+0.165*[#  15]+0.121*[#  14]+0.097*[#   7]+0.083*[#   8]
          +0.081*[#  17]+0.073*[#   9]+0.061*[#  16]+0.052*[#   5]+0.042*[#  18]
          
    |psi|^2 = 0.996
==== e(   9) =    12.03084 eV ==== 
     psi = 0.547*[#   5]+0.146*[#   9]+0.146*[#   7]+0.091*[#   8]+0.064*[#   6]
          +0.001*[#   2]
    |psi|^2 = 1.000
==== e(  10) =    12.50108 eV ==== 
     psi = 0.437*[#  14]+0.187*[#  16]+0.181*[#  18]+0.112*[#  15]+0.076*[#  17]
          +0.001*[#   6]+0.001*[#   7]
    |psi|^2 = 0.998
==== e(  11) =    13.47011 eV ==== 
     psi = 0.165*[#  18]+0.124*[#  13]+0.085*[#   9]+0.070*[#   4]+0.064*[#   7]
          +0.062*[#  16]+0.055*[#  17]+0.044*[#   1]+0.044*[#  12]+0.042*[#  10]
          +0.036*[#  15]+0.031*[#   3]+0.029*[#   8]+0.027*[#   6]+0.002*[#  11]
          
    |psi|^2 = 0.882
==== e(  12) =    16.42152 eV ==== 
     psi = 0.179*[#   4]+0.169*[#  13]+0.140*[#   3]+0.135*[#  12]+0.057*[#  18]
          +0.055*[#  17]+0.053*[#   8]+0.039*[#   9]+0.035*[#   1]+0.033*[#  10]
          +0.025*[#  14]+0.021*[#   5]+0.006*[#  16]+0.004*[#   7]+0.002*[#  15]
          +0.001*[#   6]
    |psi|^2 = 0.955
==== e(  13) =    20.39198 eV ==== 
     psi = 0.268*[#   1]+0.264*[#  10]+0.068*[#   4]+0.064*[#  13]+0.055*[#   2]
          +0.052*[#  11]+0.042*[#   3]+0.040*[#  12]+0.020*[#  18]+0.019*[#  17]
          +0.018*[#  16]+0.017*[#   8]+0.016*[#   7]+0.016*[#   9]+0.009*[#  15]
          +0.008*[#   6]+0.004*[#   5]+0.004*[#  14]
    |psi|^2 = 0.985
==== e(  14) =    27.86884 eV ==== 
     psi = 0.309*[#   3]+0.296*[#  12]+0.158*[#   4]+0.157*[#  13]+0.084*[#   2]
          +0.081*[#  11]+0.014*[#   1]+0.011*[#  10]+0.006*[#   8]+0.006*[#  17]
          +0.002*[#   9]+0.002*[#  18]+0.001*[#  15]+0.001*[#   6]+0.001*[#   5]
          +0.001*[#  14]
    |psi|^2 = 1.131
==== e(  15) =    29.02076 eV ==== 
     psi = 0.285*[#   1]+0.266*[#  10]+0.039*[#  13]+0.033*[#   4]+0.032*[#  12]
          +0.024*[#   3]+0.003*[#   7]+0.003*[#  16]+0.002*[#   2]+0.002*[#   6]
          +0.001*[#  15]+0.001*[#  11]
    |psi|^2 = 0.693
==== e(  16) =    29.21861 eV ==== 
     psi = 0.170*[#  12]+0.165*[#   3]+0.154*[#   2]+0.142*[#  11]+0.141*[#  10]
          +0.114*[#   1]+0.073*[#   4]+0.070*[#  13]+0.003*[#  15]+0.002*[#  16]
          +0.002*[#   6]+0.002*[#   7]+0.001*[#   8]+0.001*[#  17]
    |psi|^2 = 1.041
==== e(  17) =    30.80820 eV ==== 
     psi = 0.316*[#   2]+0.307*[#  11]+0.097*[#   4]+0.095*[#  13]+0.058*[#   3]
          +0.057*[#  12]+0.003*[#   5]+0.003*[#  14]
    |psi|^2 = 0.939
==== e(  18) =    34.90937 eV ==== 
     psi = 0.233*[#  11]+0.226*[#   2]+0.072*[#  13]+0.070*[#   4]+0.043*[#  12]
          +0.042*[#   3]
    |psi|^2 = 0.688

 k =   0.8000000000  0.4618802154 -0.6531972647
==== e(   1) =     7.28548 eV ==== 
     psi = 0.195*[#   7]+0.178*[#  17]+0.098*[#  16]+0.089*[#   6]+0.085*[#  15]
          +0.077*[#   1]+0.072*[#   9]+0.072*[#  18]+0.061*[#   8]+0.015*[#  10]
          +0.011*[#  14]+0.011*[#   4]+0.009*[#  12]+0.007*[#  13]+0.007*[#  11]
          +0.007*[#   2]+0.004*[#   3]
    |psi|^2 = 0.998
==== e(   2) =     7.66999 eV ==== 
     psi = 0.150*[#  16]+0.145*[#  17]+0.118*[#   8]+0.097*[#  10]+0.094*[#  14]
          +0.086*[#   6]+0.083*[#   9]+0.066*[#  18]+0.051*[#  15]+0.032*[#   1]
          +0.029*[#   7]+0.017*[#   3]+0.016*[#  11]+0.012*[#  12]+0.011*[#  13]
          +0.006*[#   4]+0.006*[#   2]+0.001*[#   5]
    |psi|^2 = 1.019
==== e(   3) =     7.97165 eV ==== 
     psi = 0.251*[#   5]+0.224*[#   8]+0.133*[#   7]+0.097*[#   9]+0.061*[#  14]
          +0.059*[#   6]+0.054*[#  18]+0.051*[#  17]+0.019*[#  15]+0.015*[#  16]
          +0.012*[#  10]+0.011*[#   1]+0.003*[#   3]+0.003*[#  12]+0.002*[#  13]
          +0.002*[#   4]
    |psi|^2 = 0.999
==== e(   4) =     9.99732 eV ==== 
     psi = 0.202*[#  16]+0.182*[#  14]+0.122*[#   8]+0.117*[#   7]+0.097*[#   5]
          +0.069*[#  15]+0.064*[#   9]+0.060*[#  17]+0.042*[#   6]+0.036*[#  18]
          +0.012*[#   2]+0.002*[#   4]+0.002*[#  11]+0.002*[#  12]+0.002*[#  13]
          +0.001*[#   3]
    |psi|^2 = 1.013
==== e(   5) =    10.00557 eV ==== 
     psi = 0.302*[#  15]+0.288*[#   6]+0.143*[#  16]+0.112*[#   7]+0.044*[#  17]
          +0.039*[#   5]+0.026*[#  14]+0.021*[#  18]+0.014*[#   8]+0.008*[#   9]
          
    |psi|^2 = 0.999
==== e(   6) =    10.95953 eV ==== 
     psi = 0.283*[#   9]+0.095*[#   8]+0.089*[#  18]+0.088*[#  17]+0.074*[#   4]
          +0.064*[#   7]+0.062*[#  13]+0.052*[#   6]+0.050*[#   3]+0.041*[#  14]
          +0.040*[#  12]+0.015*[#   5]+0.011*[#  16]+0.005*[#   1]+0.005*[#  15]
          +0.004*[#  10]
    |psi|^2 = 0.977
==== e(   7) =    11.78035 eV ==== 
     psi = 0.267*[#   6]+0.219*[#   7]+0.175*[#   9]+0.073*[#   5]+0.067*[#   8]
          +0.064*[#  15]+0.043*[#  14]+0.038*[#  17]+0.029*[#  18]+0.025*[#  16]
          +0.012*[#   2]+0.011*[#  11]
    |psi|^2 = 1.022
==== e(   8) =    12.09805 eV ==== 
     psi = 0.428*[#   5]+0.171*[#  15]+0.096*[#  16]+0.085*[#   8]+0.054*[#  18]
          +0.051*[#   9]+0.040*[#   7]+0.039*[#  17]+0.032*[#   6]+0.001*[#  14]
          
    |psi|^2 = 0.999
==== e(   9) =    12.44375 eV ==== 
     psi = 0.429*[#  14]+0.182*[#  16]+0.134*[#  15]+0.079*[#  17]+0.045*[#   5]
          +0.039*[#   8]+0.037*[#  18]+0.020*[#   9]+0.014*[#   7]+0.005*[#   6]
          +0.005*[#  12]+0.004*[#  11]+0.004*[#   4]+0.003*[#  13]+0.001*[#   3]
          
    |psi|^2 = 1.000
==== e(  10) =    12.56008 eV ==== 
     psi = 0.415*[#  18]+0.157*[#  17]+0.072*[#   9]+0.069*[#  15]+0.061*[#  14]
          +0.052*[#   6]+0.042*[#   8]+0.032*[#   7]+0.027*[#  13]+0.023*[#  16]
          +0.020*[#  12]+0.011*[#   4]+0.005*[#   3]+0.005*[#   5]+0.002*[#  11]
          +0.001*[#   1]
    |psi|^2 = 0.995
==== e(  11) =    13.90206 eV ==== 
     psi = 0.174*[#   4]+0.129*[#  13]+0.094*[#   1]+0.093*[#  12]+0.088*[#   3]
          +0.067*[#  10]+0.026*[#  16]+0.020*[#   7]+0.019*[#  17]+0.015*[#  18]
          +0.014*[#  15]+0.011*[#   6]+0.005*[#   2]+0.004*[#   8]+0.003*[#   9]
          +0.001*[#  11]
    |psi|^2 = 0.765
==== e(  12) =    13.97811 eV ==== 
     psi = 0.154*[#  13]+0.113*[#   4]+0.108*[#   8]+0.105*[#   3]+0.093*[#  18]
          +0.090*[#  12]+0.080*[#  17]+0.054*[#   9]+0.044*[#  14]+0.041*[#  10]
          +0.038*[#   5]+0.019*[#   1]+0.005*[#  16]+0.005*[#   6]+0.005*[#   7]
          +0.004*[#  15]
    |psi|^2 = 0.958
==== e(  13) =    20.84976 eV ==== 
     psi = 0.338*[#   1]+0.326*[#  10]+0.056*[#   4]+0.051*[#  13]+0.031*[#   2]
          +0.029*[#  11]+0.019*[#   3]+0.018*[#  12]+0.017*[#  17]+0.016*[#  18]
          +0.016*[#   8]+0.015*[#  16]+0.014*[#   7]+0.013*[#   9]+0.008*[#  15]
          +0.007*[#   6]+0.005*[#   5]+0.005*[#  14]
    |psi|^2 = 0.984
==== e(  14) =    26.19736 eV ==== 
     psi = 0.303*[#  10]+0.291*[#   1]+0.037*[#  13]+0.036*[#   4]+0.026*[#   2]
          +0.025*[#  11]+0.023*[#  12]+0.022*[#   3]+0.006*[#  16]+0.006*[#   7]
          +0.004*[#  15]+0.003*[#   6]+0.003*[#   8]+0.003*[#  17]+0.002*[#   9]
          +0.002*[#  18]
    |psi|^2 = 0.792
==== e(  15) =    29.40876 eV ==== 
     psi = 0.225*[#  12]+0.225*[#   3]+0.212*[#  13]+0.211*[#   4]+0.029*[#  11]
          +0.028*[#   2]+0.002*[#  18]+0.001*[#   9]
    |psi|^2 = 0.939
==== e(  16) =    29.42179 eV ==== 
     psi = 0.136*[#   3]+0.135*[#  12]+0.070*[#   4]+0.069*[#  13]+0.045*[#  11]
          +0.045*[#   2]+0.002*[#  14]+0.002*[#   5]
    |psi|^2 = 0.506
==== e(  17) =    33.73126 eV ==== 
     psi = 0.111*[#  12]+0.110*[#   3]+0.049*[#  13]+0.048*[#   4]+0.045*[#  11]
          +0.045*[#   2]+0.029*[#   1]+0.029*[#  10]
    |psi|^2 = 0.468
==== e(  18) =    34.33993 eV ==== 

    |psi|^2 = 0.005

 k =   0.0000000000  1.3856406461 -0.4898979486
==== e(   1) =     7.29492 eV ==== 
     psi = 0.221*[#  17]+0.205*[#   7]+0.114*[#   1]+0.082*[#   9]+0.074*[#  18]
          +0.070*[#   6]+0.063*[#  15]+0.029*[#   8]+0.029*[#  14]+0.028*[#  16]
          +0.019*[#  12]+0.018*[#  13]+0.016*[#   5]+0.011*[#  10]+0.011*[#   4]
          +0.005*[#   2]+0.004*[#   3]
    |psi|^2 = 0.999
==== e(   2) =     7.47544 eV ==== 
     psi = 0.239*[#  16]+0.141*[#   8]+0.128*[#   6]+0.108*[#  10]+0.089*[#  15]
          +0.085*[#   7]+0.054*[#   9]+0.042*[#  14]+0.038*[#  18]+0.020*[#  17]
          +0.015*[#   3]+0.013*[#   4]+0.012*[#  13]+0.005*[#   1]+0.004*[#  12]
          +0.003*[#   2]+0.003*[#  11]
    |psi|^2 = 0.999
==== e(   3) =     8.04935 eV ==== 
     psi = 0.230*[#   5]+0.204*[#   8]+0.120*[#   9]+0.107*[#  17]+0.084*[#  14]
          +0.084*[#   7]+0.079*[#  18]+0.049*[#   6]+0.008*[#   3]+0.008*[#  15]
          +0.007*[#   4]+0.007*[#  16]+0.007*[#  10]+0.005*[#  11]+0.003*[#   1]
          +0.002*[#  12]
    |psi|^2 = 1.003
==== e(   4) =     9.82138 eV ==== 
     psi = 0.158*[#  15]+0.152*[#   6]+0.152*[#  14]+0.125*[#   5]+0.099*[#  17]
          +0.094*[#   8]+0.060*[#  16]+0.058*[#   7]+0.052*[#  18]+0.050*[#   9]
          +0.003*[#   2]+0.003*[#  11]
    |psi|^2 = 1.006
==== e(   5) =     9.96831 eV ==== 
     psi = 0.272*[#  16]+0.216*[#  15]+0.177*[#   6]+0.147*[#   7]+0.068*[#  14]
          +0.055*[#   8]+0.034*[#   9]+0.014*[#   5]+0.010*[#  18]+0.006*[#  17]
          
    |psi|^2 = 0.999
==== e(   6) =    11.54542 eV ==== 
     psi = 0.426*[#   9]+0.159*[#  17]+0.142*[#   8]+0.069*[#   7]+0.053*[#  18]
          +0.038*[#   6]+0.027*[#   4]+0.019*[#  14]+0.019*[#  15]+0.009*[#   3]
          +0.007*[#  16]+0.006*[#  12]+0.006*[#   1]+0.003*[#  13]+0.002*[#   5]
          
    |psi|^2 = 0.986
==== e(   7) =    11.77715 eV ==== 
     psi = 0.288*[#   6]+0.274*[#   7]+0.141*[#   5]+0.113*[#   9]+0.054*[#  15]
          +0.048*[#  14]+0.042*[#   8]+0.020*[#  16]+0.013*[#   2]+0.009*[#  18]
          +0.007*[#  17]+0.002*[#  11]
    |psi|^2 = 1.011
==== e(   8) =    11.84962 eV ==== 
     psi = 0.199*[#  13]+0.197*[#   4]+0.120*[#  12]+0.120*[#   3]+0.061*[#  17]
          +0.050*[#   8]+0.031*[#   1]+0.029*[#  10]+0.021*[#  18]+0.020*[#   5]
          +0.017*[#   9]+0.017*[#  14]+0.013*[#   7]+0.011*[#   2]+0.011*[#  16]
          +0.010*[#   6]+0.008*[#  11]+0.006*[#  15]
    |psi|^2 = 0.940
==== e(   9) =    12.14669 eV ==== 
     psi = 0.284*[#   5]+0.243*[#  15]+0.173*[#  16]+0.097*[#  18]+0.051*[#   8]
          +0.051*[#  17]+0.033*[#   6]+0.025*[#   7]+0.023*[#  14]+0.020*[#   9]
          
    |psi|^2 = 1.000
==== e(  10) =    12.49954 eV ==== 
     psi = 0.303*[#  14]+0.143*[#   8]+0.140*[#  16]+0.139*[#  18]+0.089*[#  15]
          +0.060*[#  17]+0.051*[#   9]+0.017*[#   5]+0.016*[#  13]+0.006*[#  12]
          +0.004*[#   7]+0.004*[#   3]+0.003*[#   4]+0.002*[#  10]+0.002*[#   6]
          +0.001*[#   1]
    |psi|^2 = 0.980
==== e(  11) =    12.58105 eV ==== 
     psi = 0.384*[#  18]+0.208*[#  14]+0.161*[#  17]+0.143*[#   5]+0.025*[#   6]
          +0.019*[#  15]+0.015*[#  13]+0.015*[#  16]+0.014*[#  11]+0.011*[#   7]
          +0.006*[#   2]+0.005*[#  12]+0.003*[#   3]+0.003*[#   4]+0.001*[#  10]
          
    |psi|^2 = 1.016
==== e(  12) =    16.14811 eV ==== 
     psi = 0.148*[#   4]+0.145*[#  13]+0.110*[#   3]+0.109*[#  12]+0.047*[#  10]
          +0.045*[#   1]+0.025*[#  18]+0.023*[#   8]+0.023*[#  15]+0.023*[#  17]
          +0.017*[#   6]+0.016*[#   9]+0.008*[#  11]+0.008*[#  16]+0.007*[#   2]
          +0.006*[#   7]
    |psi|^2 = 0.761
==== e(  13) =    21.75237 eV ==== 
     psi = 0.385*[#   1]+0.354*[#  10]+0.048*[#   4]+0.041*[#  13]+0.029*[#   3]
          +0.025*[#  12]+0.017*[#  17]+0.015*[#   8]+0.011*[#  18]+0.009*[#   2]
          +0.009*[#   9]+0.008*[#   7]+0.008*[#  11]+0.008*[#  16]+0.005*[#  15]
          +0.005*[#  14]+0.005*[#   5]+0.005*[#   6]
    |psi|^2 = 0.986
==== e(  14) =    24.22634 eV ==== 
     psi = 0.332*[#  10]+0.302*[#   1]+0.061*[#  13]+0.058*[#   4]+0.027*[#  12]
          +0.025*[#   3]+0.012*[#  16]+0.010*[#   7]+0.006*[#   8]+0.006*[#  15]
          +0.005*[#   6]+0.005*[#  17]+0.005*[#  18]+0.005*[#   9]
    |psi|^2 = 0.859
==== e(  15) =    26.62273 eV ==== 
     psi = 0.273*[#  12]+0.273*[#   3]+0.155*[#  13]+0.153*[#   4]+0.056*[#   1]
          +0.054*[#  10]+0.019*[#  11]+0.018*[#   2]+0.003*[#  18]+0.002*[#   9]
          +0.002*[#  17]+0.002*[#   8]+0.002*[#  14]+0.002*[#   5]
    |psi|^2 = 1.013
==== e(  16) =    29.19773 eV ==== 
     psi = 0.101*[#   4]+0.100*[#  13]+0.061*[#   3]+0.060*[#  12]+0.003*[#   2]
          +0.003*[#  11]
    |psi|^2 = 0.331
==== e(  17) =    35.25347 eV ==== 
     psi = 0.011*[#  10]+0.011*[#   1]
    |psi|^2 = 0.026
==== e(  18) =    36.62389 eV ==== 

    |psi|^2 = 0.000

 k =   0.2000000000  1.2701705922 -0.5715476066
==== e(   1) =     7.28548 eV ==== 
     psi = 0.195*[#   7]+0.178*[#  17]+0.098*[#  16]+0.089*[#   6]+0.085*[#  15]
          +0.077*[#   1]+0.072*[#   9]+0.072*[#  18]+0.061*[#   8]+0.015*[#  10]
          +0.011*[#  14]+0.011*[#   4]+0.009*[#  12]+0.007*[#  13]+0.007*[#  11]
          +0.007*[#   2]+0.004*[#   3]
    |psi|^2 = 0.998
==== e(   2) =     7.66999 eV ==== 
     psi = 0.150*[#  16]+0.145*[#  17]+0.118*[#   8]+0.097*[#  10]+0.094*[#  14]
          +0.086*[#   6]+0.083*[#   9]+0.066*[#  18]+0.051*[#  15]+0.032*[#   1]
          +0.029*[#   7]+0.017*[#   3]+0.016*[#  11]+0.012*[#  12]+0.011*[#  13]
          +0.006*[#   4]+0.006*[#   2]+0.001*[#   5]
    |psi|^2 = 1.019
==== e(   3) =     7.97165 eV ==== 
     psi = 0.251*[#   5]+0.224*[#   8]+0.133*[#   7]+0.097*[#   9]+0.061*[#  14]
          +0.059*[#   6]+0.054*[#  18]+0.051*[#  17]+0.019*[#  15]+0.015*[#  16]
          +0.012*[#  10]+0.011*[#   1]+0.003*[#   3]+0.003*[#  12]+0.002*[#  13]
          +0.002*[#   4]
    |psi|^2 = 0.999
==== e(   4) =     9.99732 eV ==== 
     psi = 0.202*[#  16]+0.182*[#  14]+0.122*[#   8]+0.117*[#   7]+0.097*[#   5]
          +0.069*[#  15]+0.064*[#   9]+0.060*[#  17]+0.042*[#   6]+0.036*[#  18]
          +0.012*[#   2]+0.002*[#   4]+0.002*[#  11]+0.002*[#  12]+0.002*[#  13]
          +0.001*[#   3]
    |psi|^2 = 1.013
==== e(   5) =    10.00557 eV ==== 
     psi = 0.302*[#  15]+0.288*[#   6]+0.143*[#  16]+0.112*[#   7]+0.044*[#  17]
          +0.039*[#   5]+0.026*[#  14]+0.021*[#  18]+0.014*[#   8]+0.008*[#   9]
          
    |psi|^2 = 0.999
==== e(   6) =    10.95953 eV ==== 
[...]
          +0.009*[#   3]+0.008*[#  10]+0.007*[#  12]+0.006*[#  11]+0.006*[#   2]
          +0.005*[#  13]
    |psi|^2 = 0.992
==== e(   7) =    10.81570 eV ==== 
     psi = 0.302*[#  14]+0.228*[#  16]+0.171*[#  18]+0.168*[#  15]+0.062*[#  17]
          +0.045*[#   5]+0.015*[#   2]+0.007*[#   8]+0.006*[#   9]+0.006*[#   7]
          +0.005*[#  11]+0.003*[#   6]
    |psi|^2 = 1.017
==== e(   8) =    11.09776 eV ==== 
     psi = 0.204*[#  14]+0.167*[#   6]+0.133*[#   5]+0.111*[#  15]+0.102*[#   8]
          +0.092*[#  17]+0.064*[#   7]+0.055*[#   9]+0.037*[#  16]+0.034*[#  18]
          +0.002*[#  11]+0.001*[#   2]
    |psi|^2 = 1.003
==== e(   9) =    11.38655 eV ==== 
     psi = 0.432*[#   5]+0.177*[#   9]+0.135*[#   7]+0.101*[#   6]+0.087*[#   8]
          +0.018*[#  16]+0.016*[#  18]+0.016*[#  15]+0.009*[#  17]+0.005*[#  14]
          
    |psi|^2 = 0.999
==== e(  10) =    11.79235 eV ==== 
     psi = 0.249*[#   8]+0.162*[#   9]+0.153*[#   6]+0.085*[#  17]+0.065*[#  18]
          +0.065*[#  15]+0.062*[#   7]+0.031*[#   3]+0.022*[#  16]+0.019*[#  13]
          +0.017*[#  12]+0.015*[#  10]+0.012*[#   4]+0.009*[#   5]+0.003*[#   1]
          +0.001*[#  14]
    |psi|^2 = 0.972
==== e(  11) =    11.87786 eV ==== 
     psi = 0.200*[#   6]+0.181*[#  15]+0.144*[#  14]+0.087*[#  17]+0.083*[#   7]
          +0.070*[#   8]+0.066*[#  16]+0.063*[#   5]+0.057*[#   9]+0.046*[#  18]
          +0.017*[#  11]+0.011*[#   2]
    |psi|^2 = 1.025
==== e(  12) =    13.07454 eV ==== 
     psi = 0.218*[#  17]+0.164*[#   8]+0.153*[#   9]+0.104*[#  18]+0.089*[#   5]
          +0.077*[#  14]+0.054*[#  12]+0.036*[#   3]+0.028*[#  13]+0.024*[#   4]
          +0.022*[#   2]+0.016*[#   1]+0.013*[#  10]+0.009*[#  15]+0.007*[#  16]
          +0.006*[#   7]+0.003*[#   6]+0.001*[#  11]
    |psi|^2 = 1.023
==== e(  13) =    28.62528 eV ==== 
     psi = 0.186*[#  13]+0.174*[#   4]+0.144*[#   2]+0.144*[#  11]+0.115*[#   3]
          +0.104*[#  12]+0.007*[#   9]+0.006*[#  18]+0.004*[#   8]+0.004*[#  17]
          +0.004*[#   6]+0.003*[#  15]+0.002*[#   7]+0.002*[#  16]
    |psi|^2 = 0.901
==== e(  14) =    29.18641 eV ==== 
     psi = 0.354*[#  10]+0.342*[#   1]+0.067*[#   3]+0.060*[#  12]+0.041*[#   4]
          +0.038*[#  13]+0.003*[#   7]+0.002*[#  16]+0.002*[#   6]+0.001*[#   5]
          +0.001*[#  15]+0.001*[#  14]
    |psi|^2 = 0.914
==== e(  15) =    30.27665 eV ==== 
     psi = 0.221*[#  12]+0.205*[#   3]+0.128*[#   4]+0.121*[#  13]+0.102*[#   1]
          +0.091*[#  10]+0.004*[#   9]+0.003*[#  18]+0.001*[#   8]+0.001*[#   6]
          
    |psi|^2 = 0.882
==== e(  16) =    33.60695 eV ==== 
     psi = 0.108*[#   2]+0.097*[#  11]+0.086*[#  13]+0.085*[#   4]+0.052*[#  12]
          +0.051*[#   3]+0.002*[#   5]+0.002*[#  14]
    |psi|^2 = 0.485
==== e(  17) =    34.81711 eV ==== 
     psi = 0.034*[#   1]+0.033*[#  10]+0.005*[#   4]+0.005*[#  13]+0.004*[#   2]
          +0.004*[#  11]+0.002*[#   3]+0.002*[#  12]
    |psi|^2 = 0.091
==== e(  18) =    36.89649 eV ==== 
     psi = 0.082*[#  10]+0.082*[#   1]+0.008*[#   4]+0.007*[#   2]+0.007*[#   3]
          +0.007*[#  13]+0.007*[#  11]+0.007*[#  12]
    |psi|^2 = 0.209

 k =   0.4000000000  1.6165807537  1.1430952133
==== e(   1) =     6.64621 eV ==== 
     psi = 0.184*[#   3]+0.178*[#  12]+0.150*[#  13]+0.148*[#   4]+0.125*[#  10]
          +0.117*[#   1]+0.024*[#   8]+0.021*[#  17]+0.008*[#  14]+0.008*[#   5]
          +0.008*[#   9]+0.007*[#  18]+0.005*[#  11]+0.004*[#   2]+0.004*[#  16]
          +0.003*[#   6]+0.003*[#   7]+0.002*[#  15]
    |psi|^2 = 0.998
==== e(   2) =     7.89077 eV ==== 
     psi = 0.325*[#   2]+0.318*[#  11]+0.165*[#  15]+0.125*[#  16]+0.084*[#   7]
          +0.073*[#   6]+0.063*[#   1]+0.059*[#  18]+0.059*[#  10]+0.056*[#  12]
          +0.051*[#   3]+0.043*[#  14]+0.041*[#  13]+0.038*[#   4]+0.033*[#  17]
          +0.019*[#   5]+0.007*[#   8]+0.006*[#   9]
    |psi|^2 = 1.564
==== e(   3) =     8.93865 eV ==== 
     psi = 0.304*[#  18]+0.174*[#   8]+0.135*[#  17]+0.062*[#   9]+0.062*[#  14]
          +0.046*[#   5]+0.045*[#  15]+0.043*[#  16]+0.041*[#  11]+0.038*[#  12]
          +0.037*[#   2]+0.020*[#   3]+0.018*[#   6]+0.014*[#  13]+0.011*[#   4]
          +0.007*[#   7]+0.005*[#   1]+0.001*[#  10]
    |psi|^2 = 1.062
==== e(   4) =     9.62703 eV ==== 
     psi = 0.210*[#  16]+0.204*[#  17]+0.129*[#  14]+0.128*[#  18]+0.084*[#   9]
          +0.075*[#  15]+0.031*[#   8]+0.027*[#   3]+0.026*[#   6]+0.021*[#   5]
          +0.016*[#  11]+0.015*[#  13]+0.014*[#   2]+0.013*[#   7]+0.012*[#   4]
          +0.008*[#  12]+0.005*[#  10]
    |psi|^2 = 1.017
==== e(   5) =    10.24301 eV ==== 
     psi = 0.347*[#   7]+0.182*[#   9]+0.117*[#   8]+0.117*[#   6]+0.039*[#  16]
          +0.038*[#  18]+0.025*[#   4]+0.021*[#  17]+0.018*[#   5]+0.017*[#   1]
          +0.016*[#   2]+0.015*[#  12]+0.013*[#  15]+0.011*[#  10]+0.010*[#   3]
          +0.006*[#  13]+0.006*[#  11]+0.001*[#  14]
    |psi|^2 = 0.998
==== e(   6) =    10.41487 eV ==== 
     psi = 0.205*[#   5]+0.196*[#  14]+0.147*[#   6]+0.119*[#  15]+0.088*[#  17]
          +0.085*[#   8]+0.054*[#   7]+0.041*[#  16]+0.035*[#  18]+0.030*[#   9]
          +0.010*[#  11]+0.003*[#   2]
    |psi|^2 = 1.012
==== e(   7) =    10.46375 eV ==== 
     psi = 0.196*[#  16]+0.180*[#   6]+0.169*[#   7]+0.149*[#  15]+0.114*[#   5]
          +0.075*[#   9]+0.033*[#  14]+0.030*[#  17]+0.025*[#   8]+0.010*[#  18]
          +0.005*[#   1]+0.003*[#  13]+0.002*[#  10]+0.002*[#   3]+0.002*[#   4]
          +0.001*[#  12]
    |psi|^2 = 0.996
==== e(   8) =    10.86358 eV ==== 
     psi = 0.245*[#  14]+0.241*[#  16]+0.206*[#  15]+0.192*[#  18]+0.065*[#  17]
          +0.023*[#   5]+0.009*[#   9]+0.008*[#   7]+0.005*[#   6]+0.003*[#   8]
          
    |psi|^2 = 0.998
==== e(   9) =    11.45073 eV ==== 
     psi = 0.281*[#   5]+0.215*[#   9]+0.198*[#   7]+0.185*[#   6]+0.072*[#   8]
          +0.013*[#  16]+0.013*[#  14]+0.010*[#  15]+0.008*[#  18]+0.003*[#  17]
          
    |psi|^2 = 0.999
==== e(  10) =    12.01718 eV ==== 
     psi = 0.278*[#   8]+0.187*[#   9]+0.148*[#  17]+0.110*[#  18]+0.073*[#  14]
          +0.070*[#   5]+0.036*[#   7]+0.020*[#   3]+0.018*[#   6]+0.013*[#  16]
          +0.013*[#  13]+0.010*[#  10]+0.007*[#   4]+0.006*[#  12]+0.006*[#  15]
          
    |psi|^2 = 0.995
==== e(  11) =    12.23329 eV ==== 
     psi = 0.189*[#   5]+0.182*[#  14]+0.138*[#  15]+0.127*[#   6]+0.109*[#  17]
          +0.081*[#   8]+0.047*[#  16]+0.044*[#  18]+0.043*[#   7]+0.037*[#   9]
          +0.003*[#  11]+0.001*[#   2]
    |psi|^2 = 1.003
==== e(  12) =    13.20805 eV ==== 
     psi = 0.138*[#  17]+0.097*[#   6]+0.094*[#   8]+0.090*[#   9]+0.085*[#  12]
          +0.071*[#   3]+0.068*[#  15]+0.054*[#  18]+0.044*[#  13]+0.041*[#   4]
          +0.034*[#   7]+0.033*[#   1]+0.030*[#  10]+0.025*[#  16]+0.025*[#   2]
          +0.013*[#  11]+0.009*[#  14]
    |psi|^2 = 0.951
==== e(  13) =    25.49840 eV ==== 
     psi = 0.188*[#   3]+0.185*[#  12]+0.160*[#   1]+0.155*[#  10]+0.118*[#  13]
          +0.116*[#   4]+0.011*[#   9]+0.008*[#  18]+0.004*[#   8]+0.003*[#   5]
          +0.003*[#  17]+0.003*[#   6]+0.003*[#  14]+0.002*[#  15]+0.001*[#   7]
          
    |psi|^2 = 0.962
==== e(  14) =    29.60587 eV ==== 
     psi = 0.304*[#   2]+0.303*[#  11]+0.239*[#  10]+0.222*[#   1]+0.110*[#  13]
          +0.107*[#   4]+0.037*[#  12]+0.036*[#   3]+0.002*[#   8]+0.002*[#   7]
          +0.002*[#   9]+0.002*[#  17]+0.002*[#  16]+0.002*[#  18]
    |psi|^2 = 1.373
==== e(  15) =    32.48709 eV ==== 
     psi = 0.118*[#   1]+0.108*[#  10]+0.067*[#   4]+0.064*[#  13]+0.055*[#  11]
          +0.053*[#   2]+0.024*[#   3]+0.022*[#  12]
    |psi|^2 = 0.514
==== e(  16) =    33.05769 eV ==== 
     psi = 0.083*[#  13]+0.082*[#   4]+0.051*[#  12]+0.049*[#   3]+0.037*[#   2]
          +0.035*[#  11]+0.001*[#   5]+0.001*[#  14]
    |psi|^2 = 0.340
==== e(  17) =    34.03576 eV ==== 
     psi = 0.099*[#  12]+0.098*[#   3]+0.083*[#   1]+0.078*[#  10]+0.043*[#   4]
          +0.043*[#  13]+0.040*[#  11]+0.039*[#   2]
    |psi|^2 = 0.526
==== e(  18) =    36.59272 eV ==== 
     psi = 0.068*[#  10]+0.067*[#   1]+0.030*[#   4]+0.028*[#  13]+0.014*[#   2]
          +0.013*[#  11]+0.010*[#   3]+0.010*[#  12]
    |psi|^2 = 0.240

 k =   0.6000000000  1.5011106999  1.0614455552
==== e(   1) =     5.92970 eV ==== 
     psi = 0.182*[#   4]+0.180*[#  13]+0.153*[#   1]+0.150*[#  10]+0.109*[#   3]
          +0.108*[#  12]+0.036*[#   2]+0.036*[#  11]+0.008*[#   8]+0.008*[#  17]
          +0.006*[#  18]+0.004*[#  16]+0.004*[#   9]+0.003*[#   7]+0.003*[#  15]
          +0.003*[#   5]+0.002*[#   6]+0.002*[#  14]
    |psi|^2 = 0.997
==== e(   2) =     8.14169 eV ==== 
     psi = 0.219*[#   2]+0.216*[#  11]+0.195*[#  15]+0.165*[#  18]+0.115*[#  16]
          +0.104*[#  14]+0.068*[#   6]+0.056*[#   7]+0.055*[#  17]+0.048*[#  10]
          +0.047*[#   5]+0.040*[#   1]+0.038*[#   9]+0.014*[#  13]+0.014*[#   8]
          +0.008*[#   4]+0.007*[#   3]+0.007*[#  12]
    |psi|^2 = 1.416
==== e(   3) =     9.11891 eV ==== 
     psi = 0.212*[#  16]+0.197*[#  18]+0.112*[#   7]+0.108*[#   8]+0.081*[#  17]
          +0.071*[#  15]+0.070*[#   9]+0.062*[#   6]+0.033*[#  12]+0.018*[#   3]
          +0.016*[#  13]+0.010*[#  11]+0.007*[#   2]+0.006*[#   5]+0.006*[#   4]
          +0.001*[#   1]
    |psi|^2 = 1.013
==== e(   4) =     9.84469 eV ==== 
     psi = 0.305*[#  17]+0.135*[#  14]+0.111*[#  18]+0.099*[#   7]+0.067*[#   9]
          +0.065*[#   8]+0.061*[#  16]+0.040*[#   6]+0.035*[#  15]+0.026*[#   3]
          +0.018*[#   4]+0.016*[#   5]+0.009*[#  13]+0.004*[#  12]+0.001*[#  10]
          
    |psi|^2 = 0.993
==== e(   5) =    10.11807 eV ==== 
     psi = 0.292*[#   8]+0.112*[#   9]+0.110*[#   7]+0.083*[#   5]+0.052*[#  17]
          +0.048*[#  16]+0.045*[#   6]+0.044*[#  14]+0.041*[#  12]+0.038*[#  18]
          +0.031*[#   3]+0.024*[#  15]+0.017*[#   2]+0.017*[#   4]+0.015*[#  13]
          +0.012*[#  11]+0.011*[#   1]+0.009*[#  10]
    |psi|^2 = 0.999
==== e(   6) =    10.37739 eV ==== 
     psi = 0.257*[#  14]+0.237*[#   5]+0.130*[#   6]+0.100*[#  17]+0.070*[#  15]
          +0.069*[#   8]+0.046*[#   7]+0.034*[#  18]+0.033*[#  11]+0.030*[#  16]
          +0.025*[#   9]+0.014*[#   2]
    |psi|^2 = 1.046
==== e(   7) =    10.64846 eV ==== 
     psi = 0.230*[#   6]+0.159*[#   7]+0.147*[#  16]+0.132*[#  15]+0.104*[#   9]
          +0.098*[#   5]+0.039*[#   8]+0.029*[#  14]+0.025*[#  18]+0.023*[#  17]
          +0.004*[#   1]+0.004*[#  10]+0.002*[#   4]+0.001*[#  13]
    |psi|^2 = 0.998
==== e(   8) =    10.78450 eV ==== 
     psi = 0.233*[#  15]+0.198*[#  16]+0.175*[#  18]+0.116*[#  14]+0.082*[#   5]
          +0.058*[#  17]+0.049*[#   7]+0.043*[#   9]+0.029*[#   6]+0.015*[#   8]
          
    |psi|^2 = 0.999
==== e(   9) =    11.57691 eV ==== 
     psi = 0.192*[#   7]+0.144*[#   9]+0.122*[#   8]+0.107*[#  17]+0.098*[#  16]
          +0.085*[#  18]+0.076*[#   5]+0.074*[#   6]+0.058*[#  14]+0.033*[#  15]
          +0.002*[#   2]+0.002*[#   1]+0.002*[#  10]+0.002*[#   4]+0.001*[#   3]
          
    |psi|^2 = 1.000
==== e(  10) =    11.66789 eV ==== 
     psi = 0.300*[#   9]+0.172*[#   6]+0.117*[#   7]+0.101*[#   8]+0.100*[#   5]
          +0.080*[#  18]+0.038*[#  15]+0.034*[#  17]+0.028*[#  14]+0.027*[#  16]
          +0.001*[#   4]
    |psi|^2 = 0.999
==== e(  11) =    12.32525 eV ==== 
     psi = 0.240*[#   5]+0.216*[#  14]+0.124*[#  15]+0.099*[#  17]+0.092*[#   6]
          +0.088*[#   8]+0.041*[#  16]+0.038*[#  18]+0.031*[#   7]+0.030*[#   9]
          
    |psi|^2 = 1.000
==== e(  12) =    15.54121 eV ==== 
     psi = 0.164*[#  12]+0.161*[#   3]+0.070*[#  13]+0.069*[#   4]+0.067*[#  17]
          +0.065*[#   8]+0.047*[#   1]+0.046*[#  10]+0.046*[#   6]+0.036*[#  15]
          +0.035*[#   9]+0.027*[#  18]+0.017*[#   7]+0.014*[#  16]+0.003*[#  14]
          +0.001*[#   5]
    |psi|^2 = 0.870
==== e(  13) =    21.31927 eV ==== 
     psi = 0.231*[#   1]+0.226*[#  10]+0.124*[#   3]+0.124*[#  12]+0.091*[#  13]
          +0.091*[#   4]+0.024*[#   9]+0.017*[#  18]+0.010*[#   8]+0.009*[#   5]
          +0.008*[#  17]+0.007*[#  14]+0.007*[#   6]+0.004*[#  15]+0.002*[#   7]
          +0.002*[#  16]+0.001*[#   2]+0.001*[#  11]
    |psi|^2 = 0.982
==== e(  14) =    30.53861 eV ==== 
     psi = 0.213*[#  11]+0.213*[#   2]+0.152*[#  13]+0.146*[#  10]+0.126*[#   4]
          +0.098*[#   1]+0.056*[#  12]+0.045*[#   3]+0.002*[#   7]+0.002*[#  16]
          
    |psi|^2 = 1.057
==== e(  15) =    31.11824 eV ==== 
     psi = 0.296*[#   1]+0.253*[#  10]+0.079*[#   4]+0.057*[#  11]+0.055*[#  13]
          +0.050*[#   2]+0.046*[#   3]+0.035*[#  12]+0.002*[#  17]+0.002*[#   8]
          +0.001*[#   7]+0.001*[#   9]
    |psi|^2 = 0.879
==== e(  16) =    33.47704 eV ==== 
     psi = 0.091*[#  11]+0.078*[#  13]+0.077*[#   4]+0.070*[#   2]+0.047*[#  12]
          +0.046*[#   3]
    |psi|^2 = 0.412
==== e(  17) =    36.38733 eV ==== 
     psi = 0.032*[#   1]+0.030*[#  10]+0.024*[#   4]+0.024*[#  13]+0.010*[#  11]
          +0.010*[#   2]+0.009*[#   3]+0.009*[#  12]
    |psi|^2 = 0.148
==== e(  18) =    38.43436 eV ==== 
     psi = 0.009*[#   1]+0.009*[#  10]+0.003*[#   4]+0.002*[#  13]+0.001*[#   3]
          +0.001*[#  12]
    |psi|^2 = 0.027

 k =   0.8000000000  1.3856406461  0.9797958971
==== e(   1) =     5.84263 eV ==== 
     psi = 0.186*[#   4]+0.182*[#  13]+0.149*[#   1]+0.146*[#  10]+0.095*[#   2]
          +0.094*[#  11]+0.062*[#   3]+0.061*[#  12]+0.006*[#  16]+0.005*[#  18]
          +0.005*[#   7]+0.002*[#   9]+0.002*[#  15]+0.002*[#  17]+0.002*[#   6]
          
    |psi|^2 = 0.998
==== e(   2) =     8.27907 eV ==== 
     psi = 0.278*[#  18]+0.149*[#  15]+0.107*[#  14]+0.097*[#  17]+0.071*[#   9]
          +0.058*[#   2]+0.056*[#  11]+0.056*[#  16]+0.047*[#  10]+0.039*[#   1]
          +0.034*[#   6]+0.032*[#   5]+0.026*[#   8]+0.018*[#  13]+0.012*[#   7]
          +0.011*[#   4]+0.010*[#  12]+0.007*[#   3]
    |psi|^2 = 1.107
==== e(   3) =     9.24187 eV ==== 
     psi = 0.329*[#  16]+0.130*[#  15]+0.112*[#   8]+0.105*[#   7]+0.067*[#   6]
          +0.062*[#  14]+0.060*[#   9]+0.052*[#  18]+0.021*[#  17]+0.021*[#  12]
          +0.014*[#   3]+0.013*[#  13]+0.006*[#   5]+0.005*[#   4]+0.004*[#  11]
          +0.002*[#   2]
    |psi|^2 = 1.004
==== e(   4) =     9.50147 eV ==== 
     psi = 0.241*[#  17]+0.169*[#   7]+0.160*[#   8]+0.121*[#   5]+0.086*[#  18]
          +0.057*[#  14]+0.057*[#   6]+0.056*[#   9]+0.027*[#  15]+0.019*[#  11]
          +0.014*[#   2]+0.011*[#  16]+0.006*[#   3]+0.005*[#   4]+0.001*[#  12]
          
    |psi|^2 = 1.031
==== e(   5) =    10.20665 eV ==== 
     psi = 0.251*[#   8]+0.237*[#  14]+0.092*[#  17]+0.091*[#  18]+0.084*[#   9]
          +0.056*[#  15]+0.046*[#   3]+0.046*[#  12]+0.022*[#  16]+0.016*[#   4]
          +0.016*[#  13]+0.015*[#   7]+0.010*[#   6]+0.008*[#  11]+0.007*[#   2]
          +0.002*[#   1]
    |psi|^2 = 1.000
==== e(   6) =    10.27293 eV ==== 
     psi = 0.289*[#   5]+0.196*[#  17]+0.183*[#  14]+0.095*[#   6]+0.066*[#  18]
          +0.063*[#  16]+0.050*[#   2]+0.042*[#  11]+0.037*[#   7]+0.021*[#  15]
          +0.014*[#   3]+0.013*[#  12]+0.005*[#   4]+0.004*[#  13]+0.003*[#   8]
          +0.003*[#   9]
    |psi|^2 = 1.086
==== e(   7) =    10.61430 eV ==== 
     psi = 0.211*[#  16]+0.186*[#  18]+0.171*[#   5]+0.160*[#  15]+0.104*[#   6]
          +0.081*[#  17]+0.039*[#   7]+0.029*[#   8]+0.010*[#   9]+0.004*[#  11]
          +0.004*[#  14]+0.002*[#   2]+0.001*[#  10]
    |psi|^2 = 1.003
==== e(   8) =    10.63567 eV ==== 
     psi = 0.236*[#  15]+0.205*[#   6]+0.193*[#   7]+0.134*[#   9]+0.091*[#  16]
          +0.074*[#   8]+0.040*[#  14]+0.014*[#   2]+0.012*[#  11]+0.008*[#  18]
          +0.006*[#  17]+0.005*[#  10]+0.002*[#  13]+0.002*[#  12]+0.001*[#   1]
          
    |psi|^2 = 1.025
==== e(   9) =    11.18420 eV ==== 
     psi = 0.233*[#   7]+0.215*[#   9]+0.129*[#  16]+0.098*[#   6]+0.083*[#  18]
          +0.079*[#   8]+0.069*[#  17]+0.045*[#  15]+0.016*[#  14]+0.009*[#   5]
          +0.008*[#   4]+0.006*[#   1]+0.006*[#   2]+0.003*[#   3]
    |psi|^2 = 1.000
==== e(  10) =    11.37963 eV ==== 
     psi = 0.271*[#   9]+0.234*[#   6]+0.153*[#   7]+0.100*[#   8]+0.059*[#  18]
          +0.057*[#   5]+0.048*[#  15]+0.034*[#  16]+0.021*[#  14]+0.020*[#  17]
          +0.001*[#   2]+0.001*[#  11]
    |psi|^2 = 1.002
==== e(  11) =    12.15438 eV ==== 
     psi = 0.282*[#   5]+0.245*[#  14]+0.104*[#  15]+0.096*[#  17]+0.083*[#   8]
          +0.065*[#   6]+0.035*[#  16]+0.034*[#  18]+0.029*[#   9]+0.025*[#   7]
          
    |psi|^2 = 1.000
==== e(  12) =    16.39482 eV ==== 
     psi = 0.235*[#  12]+0.232*[#   3]+0.082*[#  13]+0.081*[#   4]+0.069*[#  17]
          +0.068*[#   8]+0.033*[#   1]+0.032*[#  10]+0.032*[#   9]+0.029*[#  18]
          +0.024*[#   5]+0.022*[#  14]+0.005*[#  15]+0.003*[#   6]+0.003*[#  16]
          +0.002*[#   7]
    |psi|^2 = 0.952
==== e(  13) =    20.39640 eV ==== 
     psi = 0.269*[#   1]+0.265*[#  10]+0.068*[#  13]+0.067*[#   4]+0.053*[#   2]
          +0.053*[#  11]+0.039*[#   3]+0.039*[#  12]+0.031*[#   9]+0.022*[#   6]
          +0.021*[#  18]+0.016*[#  15]+0.012*[#   8]+0.008*[#  17]+0.007*[#   7]
          +0.006*[#   5]+0.006*[#  16]+0.004*[#  14]
    |psi|^2 = 0.985
==== e(  14) =    29.22414 eV ==== 
     psi = 0.177*[#  13]+0.172*[#   4]+0.130*[#  10]+0.124*[#   1]+0.066*[#  12]
          +0.064*[#   3]+0.004*[#   7]+0.003*[#  16]+0.001*[#   9]+0.001*[#   6]
          +0.001*[#  15]+0.001*[#  18]
    |psi|^2 = 0.745
==== e(  15) =    33.03535 eV ==== 
     psi = 0.135*[#   1]+0.132*[#  10]+0.104*[#   3]+0.101*[#  12]+0.082*[#   4]
          +0.079*[#  13]+0.066*[#  11]+0.065*[#   2]
    |psi|^2 = 0.768
==== e(  16) =    34.90450 eV ==== 
     psi = 0.110*[#  11]+0.105*[#   2]+0.073*[#  13]+0.069*[#   4]+0.044*[#  12]
          +0.041*[#   3]
    |psi|^2 = 0.445
==== e(  17) =    36.78105 eV ==== 
     psi = 0.019*[#  10]+0.018*[#   1]+0.015*[#  13]+0.014*[#   4]+0.006*[#  12]
          +0.006*[#   3]+0.005*[#  11]+0.005*[#   2]
    |psi|^2 = 0.087
==== e(  18) =    37.16047 eV ==== 
     psi = 0.212*[#   2]+0.198*[#  11]+0.066*[#   4]+0.062*[#  13]+0.040*[#   3]
          +0.037*[#  12]
    |psi|^2 = 0.617

Lowdin Charges: 

     Atom #   1: total charge =  10.1065, s =  0.2907, p =  0.9805, d =  8.8354, 
                 spin up      =   5.2193, s =  0.1453, 
                 spin up      =   5.2193, p =  0.4899, pz=  0.2020, px=  0.1427, py=  0.1452, 
                 spin up      =   5.2193, d =  4.5840, dz2=  0.8957, dxz=  0.9281, dyz=  0.9306, dx2-y2=  0.9035, dxy=  0.9261, 
                 spin down    =   4.8873, s =  0.1454, 
                 spin down    =   4.8873, p =  0.4906, pz=  0.2086, px=  0.1418, py=  0.1402, 
                 spin down    =   4.8873, d =  4.2513, dz2=  0.8518, dxz=  0.8611, dyz=  0.8762, dx2-y2=  0.8788, dxy=  0.7834, 
                 polarization =   0.3320, s = -0.0000, p = -0.0007, d =  0.3327, 
     Atom #   2: total charge =  10.1298, s =  0.2909, p =  0.9816, d =  8.8573, 
                 spin up      =   4.9096, s =  0.1453, 
                 spin up      =   4.9096, p =  0.4908, pz=  0.2088, px=  0.1418, py=  0.1402, 
                 spin up      =   4.9096, d =  4.2735, dz2=  0.8599, dxz=  0.8644, dyz=  0.8809, dx2-y2=  0.8814, dxy=  0.7870, 
                 spin down    =   5.2202, s =  0.1455, 
                 spin down    =   5.2202, p =  0.4908, pz=  0.2024, px=  0.1430, py=  0.1455, 
                 spin down    =   5.2202, d =  4.5839, dz2=  0.8950, dxz=  0.9285, dyz=  0.9310, dx2-y2=  0.9031, dxy=  0.9263, 
                 polarization =  -0.3106, s = -0.0002, p = -0.0000, d = -0.3104, 
     Spilling Parameter:  -0.0118

     PROJWFC      :      1.18s CPU      1.32s WALL


   This run was terminated on:  13: 1:22  19May2021            

=------------------------------------------------------------------------------=
   JOB DONE.
=------------------------------------------------------------------------------=
