
     Program PW2WANNIER v.6.7GPU starts on 19May2021 at 13:11:45 

     This program is part of the open-source Quantum ESPRESSO suite
     for quantum simulation of materials; please cite
         "P. Giannozzi et al., J. Phys.:Condens. Matter 21 395502 (2009);
         "P. Giannozzi et al., J. Phys.:Condens. Matter 29 465901 (2017);
         "P. Giannozzi et al., J. Chem. Phys. 152 154105 (2020);
          URL http://www.quantum-espresso.org", 
     in publications or presentations arising from this work. More details at
     http://www.quantum-espresso.org/quote

     Parallel version (MPI & OpenMP), running on       4 processor cores
     Number of MPI processes:                 4
     Threads/MPI process:                     1

     MPI processes distributed on     1 nodes
     R & G space division:  proc/nbgrp/npool/nimage =       4

  Reading nscf_save data

     Reading xml data from directory:

     /home/ponet/.julia/environments/DFControlDEV/Demo/Ni/outputs/Ni.save/
     file Ni.pbesol-n-kjpaw_psl.0.1.UPF: wavefunction(s)  4S 3D renormalized
     file Ni.pbesol-n-kjpaw_psl.0.1.UPF: wavefunction(s)  4S 3D renormalized

     IMPORTANT: XC functional enforced from input :
     Exchange-correlation= PBESOL
                           (   1   4  10   8   0   0   0)
     Any further DFT definition will be discarded
     Please, verify this is what you really want


     Parallelization info
     --------------------
     sticks:   dense  smooth     PW     G-vecs:    dense   smooth      PW
     Min          61      61     26                  444      444     130
     Max          62      62     27                  445      445     132
     Sum         247     247    107                 1779     1779     525

     Using Slab Decomposition


     Check: negative core charge=   -0.000061
     Reading collected, re-writing distributed wavefunctions

  Spin CASE ( up )

  Wannier mode is: standalone     

  -----------------
  *** Reading nnkp 
  -----------------

  Checking info from wannier.nnkp file

  - Real lattice is ok
  - Reciprocal lattice is ok
  - K-points are ok
  - Number of wannier functions is ok ( 18)
  - All guiding functions are given 

 Projections:
    0.000000    0.000000    0.000000  0  1  1    1.000000
    0.000000    0.000000    0.000000  1  1  1    1.000000
    0.000000    0.000000    0.000000  1  2  1    1.000000
    0.000000    0.000000    0.000000  1  3  1    1.000000
    0.000000    0.000000    0.000000  2  1  1    1.000000
    0.000000    0.000000    0.000000  2  2  1    1.000000
    0.000000    0.000000    0.000000  2  3  1    1.000000
    0.000000    0.000000    0.000000  2  4  1    1.000000
    0.000000    0.000000    0.000000  2  5  1    1.000000
    0.500000    0.000000    0.000000  0  1  1    1.000000
    0.500000    0.000000    0.000000  1  1  1    1.000000
    0.500000    0.000000    0.000000  1  2  1    1.000000
    0.500000    0.000000    0.000000  1  3  1    1.000000
    0.500000    0.000000    0.000000  2  1  1    1.000000
    0.500000    0.000000    0.000000  2  2  1    1.000000
    0.500000    0.000000    0.000000  2  3  1    1.000000
    0.500000    0.000000    0.000000  2  4  1    1.000000
    0.500000    0.000000    0.000000  2  5  1    1.000000

  Reading data about k-point neighbours 

  All neighbours are found 

  Opening pp-files 


  --------------------------
  *** Compute  A projections
  --------------------------

  AMN: iknum =      125
       1       2       3       4       5       6       7       8       9      10
      11      12      13      14      15      16      17      18      19      20
      21      22      23      24      25      26      27      28      29      30
      31      32      33      34      35      36      37      38      39      40
      41      42      43      44      45      46      47      48      49      50
      51      52      53      54      55      56      57      58      59      60
      61      62      63      64      65      66      67      68      69      70
      71      72      73      74      75      76      77      78      79      80
      81      82      83      84      85      86      87      88      89      90
      91      92      93      94      95      96      97      98      99     100
     101     102     103     104     105     106     107     108     109     110
     111     112     113     114     115     116     117     118     119     120
     121     122     123     124     125

  AMN calculated

  ---------------
  *** Compute  M 
  ---------------

  MMN: iknum =      125
       1       2       3       4       5       6       7       8       9      10
      11      12      13      14      15      16      17      18      19      20
      21      22      23      24      25      26      27      28      29      30
      31      32      33      34      35      36      37      38      39      40
      41      42      43      44      45      46      47      48      49      50
      51      52      53      54      55      56      57      58      59      60
      61      62      63      64      65      66      67      68      69      70
      71      72      73      74      75      76      77      78      79      80
      81      82      83      84      85      86      87      88      89      90
      91      92      93      94      95      96      97      98      99     100
     101     102     103     104     105     106     107     108     109     110
     111     112     113     114     115     116     117     118     119     120
     121     122     123     124     125

  MMN calculated

  -----------------------------------
  *** Orbital terms are not computed 
  -----------------------------------

  -----------------------------------
  *** SHC terms are not computed 
  -----------------------------------

  ----------------
  *** Write bands 
  ----------------


  --------------------
  *** Write plot info 
  --------------------

 UNK: iknum =      125
       1       2       3       4       5       6       7       8       9      10
      11      12      13      14      15      16      17      18      19      20
      21      22      23      24      25      26      27      28      29      30
      31      32      33      34      35      36      37      38      39      40
      41      42      43      44      45      46      47      48      49      50
      51      52      53      54      55      56      57      58      59      60
      61      62      63      64      65      66      67      68      69      70
      71      72      73      74      75      76      77      78      79      80
      81      82      83      84      85      86      87      88      89      90
      91      92      93      94      95      96      97      98      99     100
     101     102     103     104     105     106     107     108     109     110
     111     112     113     114     115     116     117     118     119     120
     121     122     123     124     125

  UNK written

  -----------------------------
  *** Parity info is not printed 
  -----------------------------

  ------------
  *** Stop pp 
  ------------


     init_pw2wan  :      0.75s CPU      0.79s WALL (       1 calls)
     compute_amn  :      3.79s CPU      3.89s WALL (       1 calls)
     compute_mmn  :      1.86s CPU      1.96s WALL (       1 calls)
     write_unk    :      0.12s CPU      0.21s WALL (       1 calls)

     PW2WANNIER   :      6.53s CPU      6.86s WALL


   This run was terminated on:  13:11:52  19May2021            

=------------------------------------------------------------------------------=
   JOB DONE.
=------------------------------------------------------------------------------=

