
     Program PWSCF v.6.7GPU starts on 19May2021 at 13: 0:54 

     This program is part of the open-source Quantum ESPRESSO suite
     for quantum simulation of materials; please cite
         "P. Giannozzi et al., J. Phys.:Condens. Matter 21 395502 (2009);
         "P. Giannozzi et al., J. Phys.:Condens. Matter 29 465901 (2017);
         "P. Giannozzi et al., J. Chem. Phys. 152 154105 (2020);
          URL http://www.quantum-espresso.org", 
     in publications or presentations arising from this work. More details at
     http://www.quantum-espresso.org/quote

     Parallel version (MPI & OpenMP), running on       4 processor cores
     Number of MPI processes:                 4
     Threads/MPI process:                     1

     MPI processes distributed on     1 nodes
     K-points division:     npool     =       4
     Waiting for input...
     Reading input from standard input

     Current dimensions of program PWSCF are:
     Max number of different atomic species (ntypx) = 10
     Max number of k-points (npk) =  40000
     Max angular momentum in pseudopotentials (lmaxx) =  3
     file Ni.pbesol-n-kjpaw_psl.0.1.UPF: wavefunction(s)  4S 3D renormalized
     file Ni.pbesol-n-kjpaw_psl.0.1.UPF: wavefunction(s)  4S 3D renormalized
     Message from routine setup:
     using ibrav=0 with symmetry is DISCOURAGED, use correct ibrav instead

     Subspace diagonalization in iterative solution of the eigenvalue problem:
     a serial algorithm will be used


     G-vector sticks info
     --------------------
     sticks:   dense  smooth     PW     G-vecs:    dense   smooth      PW
     Sum         247     247    103                 1779     1779     457

     Using Slab Decomposition



     bravais-lattice index     =            0
     lattice parameter (alat)  =       9.3691  a.u.
     unit-cell volume          =     145.3870 (a.u.)^3
     number of atoms/cell      =            2
     number of atomic types    =            2
     number of electrons       =        20.00
     number of Kohn-Sham states=           18
     kinetic-energy cutoff     =      20.0000  Ry
     charge density cutoff     =      80.0000  Ry
     scf convergence threshold =      1.0E-06
     mixing beta               =       0.7000
     number of iterations used =            8  plain     mixing
     Exchange-correlation= SLA  PW   PSX  PSC
                           (   1   4  10   8   0   0   0)

     celldm(1)=   9.369149  celldm(2)=   0.000000  celldm(3)=   0.000000
     celldm(4)=   0.000000  celldm(5)=   0.000000  celldm(6)=   0.000000

     crystal axes: (cart. coord. in units of alat)
               a(1) = (   1.000000   0.000000   0.000000 )  
               a(2) = (   0.250000   0.433013   0.000000 )  
               a(3) = (   0.250000   0.144338   0.408248 )  

     reciprocal axes: (cart. coord. in units 2 pi/alat)
               b(1) = (  1.000000 -0.577350 -0.408248 )  
               b(2) = (  0.000000  2.309401 -0.816497 )  
               b(3) = (  0.000000  0.000000  2.449490 )  


     PseudoPot. # 1 for Ni read from file:
     /home/ponet/Documents/pseudos/pslibrary_pbesol/PSEUDOPOTENTIALS/Ni.pbesol-n-kjpaw_psl.0.1.UPF
     MD5 check sum: dc9a32037601bdf441cde0bb508f809f
     Pseudo is Projector augmented-wave + core cor, Zval = 10.0
     Generated using "atomic" code by A. Dal Corso  v.5.0.99 svn rev. 10869
     Shape of augmentation charge: PSQ
     Using radial grid of 1195 points,  6 beta functions with: 
                l(1) =   0
                l(2) =   0
                l(3) =   1
                l(4) =   1
                l(5) =   2
                l(6) =   2
     Q(r) pseudized with 0 coefficients 


     PseudoPot. # 2 for Ni read from file:
     /home/ponet/Documents/pseudos/pslibrary_pbesol/PSEUDOPOTENTIALS/Ni.pbesol-n-kjpaw_psl.0.1.UPF
     MD5 check sum: dc9a32037601bdf441cde0bb508f809f
     Pseudo is Projector augmented-wave + core cor, Zval = 10.0
     Generated using "atomic" code by A. Dal Corso  v.5.0.99 svn rev. 10869
     Shape of augmentation charge: PSQ
     Using radial grid of 1195 points,  6 beta functions with: 
                l(1) =   0
                l(2) =   0
                l(3) =   1
                l(4) =   1
                l(5) =   2
                l(6) =   2
     Q(r) pseudized with 0 coefficients 


     atomic species   valence    mass     pseudopotential
        Ni            10.00    58.69340     Ni( 1.00)
        Ni1           10.00    58.69340     Ni( 1.00)

     Starting magnetic structure 
     atomic species   magnetization
        Ni           0.100
        Ni1         -0.100


     Simplified LDA+U calculation (l_max = 2) with parameters (eV):
     atomic species    L          U    alpha       J0     beta
        Ni             2     4.0000   0.0000   0.0000   0.0000
        Ni1            2     4.0000   0.0000   0.0000   0.0000



      4 Sym. Ops., with inversion, found


                                    s                        frac. trans.

      isym =  1     identity                                     

 cryst.   s( 1) = (     1          0          0      )
                  (     0          1          0      )
                  (     0          0          1      )

 cart.    s( 1) = (  1.0000000  0.0000000  0.0000000 )
                  (  0.0000000  1.0000000  0.0000000 )
                  (  0.0000000  0.0000000  1.0000000 )


      isym =  2     180 deg rotation - cryst. axis [1,1,0]       

 cryst.   s( 2) = (    -1          2          0      )
                  (     0          1          0      )
                  (     0          1         -1      )

 cart.    s( 2) = ( -0.5000000  0.8660254  0.0000000 )
                  (  0.8660254  0.5000000  0.0000000 )
                  (  0.0000000  0.0000000 -1.0000000 )


      isym =  3     inversion                                    

 cryst.   s( 3) = (    -1          0          0      )
                  (     0         -1          0      )
                  (     0          0         -1      )

 cart.    s( 3) = ( -1.0000000  0.0000000  0.0000000 )
                  (  0.0000000 -1.0000000  0.0000000 )
                  (  0.0000000  0.0000000 -1.0000000 )


      isym =  4     inv. 180 deg rotation - cryst. axis [1,1,0]  

 cryst.   s( 4) = (     1         -2          0      )
                  (     0         -1          0      )
                  (     0         -1          1      )

 cart.    s( 4) = (  0.5000000 -0.8660254 -0.0000000 )
                  ( -0.8660254 -0.5000000 -0.0000000 )
                  (  0.0000000  0.0000000  1.0000000 )


   Cartesian axes

     site n.     atom                  positions (alat units)
         1           Ni  tau(   1) = (   0.0000000   0.0000000   0.0000000  )
         2           Ni1 tau(   2) = (   0.5000000   0.0000000   0.0000000  )

   Crystallographic axes

     site n.     atom                  positions (cryst. coord.)
         1           Ni  tau(   1) = (  0.0000000  0.0000000  0.0000000  )
         2           Ni1 tau(   2) = (  0.5000000  0.0000000  0.0000000  )

     number of k points=   108  Gaussian smearing, width (Ry)=  0.0100
                       cart. coord. in units 2pi/alat
        k(    1) = (   0.0833333   0.1443376   0.1020621), wk =   0.0092593
        k(    2) = (   0.0833333   0.1443376   0.5103104), wk =   0.0092593
        k(    3) = (   0.0833333   0.1443376   0.9185587), wk =   0.0092593
        k(    4) = (   0.0833333   0.1443376  -1.1226828), wk =   0.0092593
        k(    5) = (   0.0833333   0.1443376  -0.7144345), wk =   0.0092593
        k(    6) = (   0.0833333   0.1443376  -0.3061862), wk =   0.0092593
        k(    7) = (   0.0833333   0.5292377  -0.0340207), wk =   0.0092593
        k(    8) = (   0.0833333   0.5292377   0.3742276), wk =   0.0092593
        k(    9) = (   0.0833333   0.5292377   0.7824759), wk =   0.0092593
        k(   10) = (   0.0833333   0.5292377  -1.2587656), wk =   0.0092593
        k(   11) = (   0.0833333   0.5292377  -0.8505173), wk =   0.0092593
        k(   12) = (   0.0833333   0.5292377  -0.4422690), wk =   0.0092593
        k(   13) = (   0.0833333   0.9141379  -0.1701035), wk =   0.0092593
        k(   14) = (   0.0833333   0.9141379   0.2381448), wk =   0.0092593
        k(   15) = (   0.0833333   0.9141379   0.6463931), wk =   0.0092593
        k(   16) = (   0.0833333   0.9141379  -1.3948483), wk =   0.0092593
        k(   17) = (   0.0833333   0.9141379  -0.9866000), wk =   0.0092593
        k(   18) = (   0.0833333   0.9141379  -0.5783517), wk =   0.0092593
        k(   19) = (   0.0833333  -1.0103630   0.5103104), wk =   0.0092593
        k(   20) = (   0.0833333  -1.0103630   0.9185587), wk =   0.0092593
        k(   21) = (   0.0833333  -1.0103630   1.3268069), wk =   0.0092593
        k(   22) = (   0.0833333  -1.0103630  -0.7144345), wk =   0.0092593
        k(   23) = (   0.0833333  -1.0103630  -0.3061862), wk =   0.0092593
        k(   24) = (   0.0833333  -1.0103630   0.1020621), wk =   0.0092593
        k(   25) = (   0.0833333  -0.6254628   0.3742276), wk =   0.0092593
        k(   26) = (   0.0833333  -0.6254628   0.7824759), wk =   0.0092593
        k(   27) = (   0.0833333  -0.6254628   1.1907242), wk =   0.0092593
        k(   28) = (   0.0833333  -0.6254628  -0.8505173), wk =   0.0092593
        k(   29) = (   0.0833333  -0.6254628  -0.4422690), wk =   0.0092593
        k(   30) = (   0.0833333  -0.6254628  -0.0340207), wk =   0.0092593
        k(   31) = (   0.0833333  -0.2405626   0.2381448), wk =   0.0092593
        k(   32) = (   0.0833333  -0.2405626   0.6463931), wk =   0.0092593
        k(   33) = (   0.0833333  -0.2405626   1.0546414), wk =   0.0092593
        k(   34) = (   0.0833333  -0.2405626  -0.9866000), wk =   0.0092593
        k(   35) = (   0.0833333  -0.2405626  -0.5783517), wk =   0.0092593
        k(   36) = (   0.0833333  -0.2405626  -0.1701035), wk =   0.0092593
        k(   37) = (   0.2500000   0.0481125   0.0340207), wk =   0.0092593
        k(   38) = (   0.2500000   0.0481125   0.4422690), wk =   0.0092593
        k(   39) = (   0.2500000   0.0481125   0.8505173), wk =   0.0092593
        k(   40) = (   0.2500000   0.0481125  -1.1907242), wk =   0.0092593
        k(   41) = (   0.2500000   0.0481125  -0.7824759), wk =   0.0092593
        k(   42) = (   0.2500000   0.0481125  -0.3742276), wk =   0.0092593
        k(   43) = (   0.2500000   0.4330127  -0.1020621), wk =   0.0092593
        k(   44) = (   0.2500000   0.4330127   0.3061862), wk =   0.0092593
        k(   45) = (   0.2500000   0.4330127   0.7144345), wk =   0.0092593
        k(   46) = (   0.2500000   0.4330127  -1.3268069), wk =   0.0092593
        k(   47) = (   0.2500000   0.4330127  -0.9185587), wk =   0.0092593
        k(   48) = (   0.2500000   0.4330127  -0.5103104), wk =   0.0092593
        k(   49) = (   0.2500000   0.8179129  -0.2381448), wk =   0.0092593
        k(   50) = (   0.2500000   0.8179129   0.1701035), wk =   0.0092593
        k(   51) = (   0.2500000   0.8179129   0.5783517), wk =   0.0092593
        k(   52) = (   0.2500000   0.8179129  -1.4628897), wk =   0.0092593
        k(   53) = (   0.2500000   0.8179129  -1.0546414), wk =   0.0092593
        k(   54) = (   0.2500000   0.8179129  -0.6463931), wk =   0.0092593
        k(   55) = (   0.2500000  -1.1065880   0.4422690), wk =   0.0092593
        k(   56) = (   0.2500000  -1.1065880   0.8505173), wk =   0.0092593
        k(   57) = (   0.2500000  -1.1065880   1.2587656), wk =   0.0092593
        k(   58) = (   0.2500000  -1.1065880  -0.7824759), wk =   0.0092593
        k(   59) = (   0.2500000  -1.1065880  -0.3742276), wk =   0.0092593
        k(   60) = (   0.2500000  -1.1065880   0.0340207), wk =   0.0092593
        k(   61) = (   0.2500000  -0.7216878   0.3061862), wk =   0.0092593
        k(   62) = (   0.2500000  -0.7216878   0.7144345), wk =   0.0092593
        k(   63) = (   0.2500000  -0.7216878   1.1226828), wk =   0.0092593
        k(   64) = (   0.2500000  -0.7216878  -0.9185587), wk =   0.0092593
        k(   65) = (   0.2500000  -0.7216878  -0.5103104), wk =   0.0092593
        k(   66) = (   0.2500000  -0.7216878  -0.1020621), wk =   0.0092593
        k(   67) = (   0.2500000  -0.3367877   0.1701035), wk =   0.0092593
        k(   68) = (   0.2500000  -0.3367877   0.5783517), wk =   0.0092593
        k(   69) = (   0.2500000  -0.3367877   0.9866000), wk =   0.0092593
        k(   70) = (   0.2500000  -0.3367877  -1.0546414), wk =   0.0092593
        k(   71) = (   0.2500000  -0.3367877  -0.6463931), wk =   0.0092593
        k(   72) = (   0.2500000  -0.3367877  -0.2381448), wk =   0.0092593
        k(   73) = (   0.4166667  -0.0481125  -0.0340207), wk =   0.0092593
        k(   74) = (   0.4166667  -0.0481125   0.3742276), wk =   0.0092593
        k(   75) = (   0.4166667  -0.0481125   0.7824759), wk =   0.0092593
        k(   76) = (   0.4166667  -0.0481125  -1.2587656), wk =   0.0092593
        k(   77) = (   0.4166667  -0.0481125  -0.8505173), wk =   0.0092593
        k(   78) = (   0.4166667  -0.0481125  -0.4422690), wk =   0.0092593
        k(   79) = (   0.4166667   0.3367877  -0.1701035), wk =   0.0092593
        k(   80) = (   0.4166667   0.3367877   0.2381448), wk =   0.0092593
        k(   81) = (   0.4166667   0.3367877   0.6463931), wk =   0.0092593
        k(   82) = (   0.4166667   0.3367877  -1.3948483), wk =   0.0092593
        k(   83) = (   0.4166667   0.3367877  -0.9866000), wk =   0.0092593
        k(   84) = (   0.4166667   0.3367877  -0.5783517), wk =   0.0092593
        k(   85) = (   0.4166667   0.7216878  -0.3061862), wk =   0.0092593
        k(   86) = (   0.4166667   0.7216878   0.1020621), wk =   0.0092593
        k(   87) = (   0.4166667   0.7216878   0.5103104), wk =   0.0092593
        k(   88) = (   0.4166667   0.7216878  -1.5309311), wk =   0.0092593
        k(   89) = (   0.4166667   0.7216878  -1.1226828), wk =   0.0092593
        k(   90) = (   0.4166667   0.7216878  -0.7144345), wk =   0.0092593
        k(   91) = (   0.4166667  -1.2028131   0.3742276), wk =   0.0092593
        k(   92) = (   0.4166667  -1.2028131   0.7824759), wk =   0.0092593
        k(   93) = (   0.4166667  -1.2028131   1.1907242), wk =   0.0092593
        k(   94) = (   0.4166667  -1.2028131  -0.8505173), wk =   0.0092593
        k(   95) = (   0.4166667  -1.2028131  -0.4422690), wk =   0.0092593
        k(   96) = (   0.4166667  -1.2028131  -0.0340207), wk =   0.0092593
        k(   97) = (   0.4166667  -0.8179129   0.2381448), wk =   0.0092593
        k(   98) = (   0.4166667  -0.8179129   0.6463931), wk =   0.0092593
        k(   99) = (   0.4166667  -0.8179129   1.0546414), wk =   0.0092593
        k(  100) = (   0.4166667  -0.8179129  -0.9866000), wk =   0.0092593
        k(  101) = (   0.4166667  -0.8179129  -0.5783517), wk =   0.0092593
        k(  102) = (   0.4166667  -0.8179129  -0.1701035), wk =   0.0092593
        k(  103) = (   0.4166667  -0.4330127   0.1020621), wk =   0.0092593
        k(  104) = (   0.4166667  -0.4330127   0.5103104), wk =   0.0092593
        k(  105) = (   0.4166667  -0.4330127   0.9185587), wk =   0.0092593
        k(  106) = (   0.4166667  -0.4330127  -1.1226828), wk =   0.0092593
        k(  107) = (   0.4166667  -0.4330127  -0.7144345), wk =   0.0092593
        k(  108) = (   0.4166667  -0.4330127  -0.3061862), wk =   0.0092593

                       cryst. coord.
        k(    1) = (   0.0833333   0.0833333   0.0833333), wk =   0.0092593
        k(    2) = (   0.0833333   0.0833333   0.2500000), wk =   0.0092593
        k(    3) = (   0.0833333   0.0833333   0.4166667), wk =   0.0092593
        k(    4) = (   0.0833333   0.0833333  -0.4166667), wk =   0.0092593
        k(    5) = (   0.0833333   0.0833333  -0.2500000), wk =   0.0092593
        k(    6) = (   0.0833333   0.0833333  -0.0833333), wk =   0.0092593
        k(    7) = (   0.0833333   0.2500000   0.0833333), wk =   0.0092593
        k(    8) = (   0.0833333   0.2500000   0.2500000), wk =   0.0092593
        k(    9) = (   0.0833333   0.2500000   0.4166667), wk =   0.0092593
        k(   10) = (   0.0833333   0.2500000  -0.4166667), wk =   0.0092593
        k(   11) = (   0.0833333   0.2500000  -0.2500000), wk =   0.0092593
        k(   12) = (   0.0833333   0.2500000  -0.0833333), wk =   0.0092593
        k(   13) = (   0.0833333   0.4166667   0.0833333), wk =   0.0092593
        k(   14) = (   0.0833333   0.4166667   0.2500000), wk =   0.0092593
        k(   15) = (   0.0833333   0.4166667   0.4166667), wk =   0.0092593
        k(   16) = (   0.0833333   0.4166667  -0.4166667), wk =   0.0092593
        k(   17) = (   0.0833333   0.4166667  -0.2500000), wk =   0.0092593
        k(   18) = (   0.0833333   0.4166667  -0.0833333), wk =   0.0092593
        k(   19) = (   0.0833333  -0.4166667   0.0833333), wk =   0.0092593
        k(   20) = (   0.0833333  -0.4166667   0.2500000), wk =   0.0092593
        k(   21) = (   0.0833333  -0.4166667   0.4166667), wk =   0.0092593
        k(   22) = (   0.0833333  -0.4166667  -0.4166667), wk =   0.0092593
        k(   23) = (   0.0833333  -0.4166667  -0.2500000), wk =   0.0092593
        k(   24) = (   0.0833333  -0.4166667  -0.0833333), wk =   0.0092593
        k(   25) = (   0.0833333  -0.2500000   0.0833333), wk =   0.0092593
        k(   26) = (   0.0833333  -0.2500000   0.2500000), wk =   0.0092593
        k(   27) = (   0.0833333  -0.2500000   0.4166667), wk =   0.0092593
        k(   28) = (   0.0833333  -0.2500000  -0.4166667), wk =   0.0092593
        k(   29) = (   0.0833333  -0.2500000  -0.2500000), wk =   0.0092593
        k(   30) = (   0.0833333  -0.2500000  -0.0833333), wk =   0.0092593
        k(   31) = (   0.0833333  -0.0833333   0.0833333), wk =   0.0092593
        k(   32) = (   0.0833333  -0.0833333   0.2500000), wk =   0.0092593
        k(   33) = (   0.0833333  -0.0833333   0.4166667), wk =   0.0092593
        k(   34) = (   0.0833333  -0.0833333  -0.4166667), wk =   0.0092593
        k(   35) = (   0.0833333  -0.0833333  -0.2500000), wk =   0.0092593
        k(   36) = (   0.0833333  -0.0833333  -0.0833333), wk =   0.0092593
        k(   37) = (   0.2500000   0.0833333   0.0833333), wk =   0.0092593
        k(   38) = (   0.2500000   0.0833333   0.2500000), wk =   0.0092593
        k(   39) = (   0.2500000   0.0833333   0.4166667), wk =   0.0092593
        k(   40) = (   0.2500000   0.0833333  -0.4166667), wk =   0.0092593
        k(   41) = (   0.2500000   0.0833333  -0.2500000), wk =   0.0092593
        k(   42) = (   0.2500000   0.0833333  -0.0833333), wk =   0.0092593
        k(   43) = (   0.2500000   0.2500000   0.0833333), wk =   0.0092593
        k(   44) = (   0.2500000   0.2500000   0.2500000), wk =   0.0092593
        k(   45) = (   0.2500000   0.2500000   0.4166667), wk =   0.0092593
        k(   46) = (   0.2500000   0.2500000  -0.4166667), wk =   0.0092593
        k(   47) = (   0.2500000   0.2500000  -0.2500000), wk =   0.0092593
        k(   48) = (   0.2500000   0.2500000  -0.0833333), wk =   0.0092593
        k(   49) = (   0.2500000   0.4166667   0.0833333), wk =   0.0092593
        k(   50) = (   0.2500000   0.4166667   0.2500000), wk =   0.0092593
        k(   51) = (   0.2500000   0.4166667   0.4166667), wk =   0.0092593
        k(   52) = (   0.2500000   0.4166667  -0.4166667), wk =   0.0092593
        k(   53) = (   0.2500000   0.4166667  -0.2500000), wk =   0.0092593
        k(   54) = (   0.2500000   0.4166667  -0.0833333), wk =   0.0092593
        k(   55) = (   0.2500000  -0.4166667   0.0833333), wk =   0.0092593
        k(   56) = (   0.2500000  -0.4166667   0.2500000), wk =   0.0092593
        k(   57) = (   0.2500000  -0.4166667   0.4166667), wk =   0.0092593
        k(   58) = (   0.2500000  -0.4166667  -0.4166667), wk =   0.0092593
        k(   59) = (   0.2500000  -0.4166667  -0.2500000), wk =   0.0092593
        k(   60) = (   0.2500000  -0.4166667  -0.0833333), wk =   0.0092593
        k(   61) = (   0.2500000  -0.2500000   0.0833333), wk =   0.0092593
        k(   62) = (   0.2500000  -0.2500000   0.2500000), wk =   0.0092593
        k(   63) = (   0.2500000  -0.2500000   0.4166667), wk =   0.0092593
        k(   64) = (   0.2500000  -0.2500000  -0.4166667), wk =   0.0092593
        k(   65) = (   0.2500000  -0.2500000  -0.2500000), wk =   0.0092593
        k(   66) = (   0.2500000  -0.2500000  -0.0833333), wk =   0.0092593
        k(   67) = (   0.2500000  -0.0833333   0.0833333), wk =   0.0092593
        k(   68) = (   0.2500000  -0.0833333   0.2500000), wk =   0.0092593
        k(   69) = (   0.2500000  -0.0833333   0.4166667), wk =   0.0092593
        k(   70) = (   0.2500000  -0.0833333  -0.4166667), wk =   0.0092593
        k(   71) = (   0.2500000  -0.0833333  -0.2500000), wk =   0.0092593
        k(   72) = (   0.2500000  -0.0833333  -0.0833333), wk =   0.0092593
        k(   73) = (   0.4166667   0.0833333   0.0833333), wk =   0.0092593
        k(   74) = (   0.4166667   0.0833333   0.2500000), wk =   0.0092593
        k(   75) = (   0.4166667   0.0833333   0.4166667), wk =   0.0092593
        k(   76) = (   0.4166667   0.0833333  -0.4166667), wk =   0.0092593
        k(   77) = (   0.4166667   0.0833333  -0.2500000), wk =   0.0092593
        k(   78) = (   0.4166667   0.0833333  -0.0833333), wk =   0.0092593
        k(   79) = (   0.4166667   0.2500000   0.0833333), wk =   0.0092593
        k(   80) = (   0.4166667   0.2500000   0.2500000), wk =   0.0092593
        k(   81) = (   0.4166667   0.2500000   0.4166667), wk =   0.0092593
        k(   82) = (   0.4166667   0.2500000  -0.4166667), wk =   0.0092593
        k(   83) = (   0.4166667   0.2500000  -0.2500000), wk =   0.0092593
        k(   84) = (   0.4166667   0.2500000  -0.0833333), wk =   0.0092593
        k(   85) = (   0.4166667   0.4166667   0.0833333), wk =   0.0092593
        k(   86) = (   0.4166667   0.4166667   0.2500000), wk =   0.0092593
        k(   87) = (   0.4166667   0.4166667   0.4166667), wk =   0.0092593
        k(   88) = (   0.4166667   0.4166667  -0.4166667), wk =   0.0092593
        k(   89) = (   0.4166667   0.4166667  -0.2500000), wk =   0.0092593
        k(   90) = (   0.4166667   0.4166667  -0.0833333), wk =   0.0092593
        k(   91) = (   0.4166667  -0.4166667   0.0833333), wk =   0.0092593
        k(   92) = (   0.4166667  -0.4166667   0.2500000), wk =   0.0092593
        k(   93) = (   0.4166667  -0.4166667   0.4166667), wk =   0.0092593
        k(   94) = (   0.4166667  -0.4166667  -0.4166667), wk =   0.0092593
        k(   95) = (   0.4166667  -0.4166667  -0.2500000), wk =   0.0092593
        k(   96) = (   0.4166667  -0.4166667  -0.0833333), wk =   0.0092593
        k(   97) = (   0.4166667  -0.2500000   0.0833333), wk =   0.0092593
        k(   98) = (   0.4166667  -0.2500000   0.2500000), wk =   0.0092593
        k(   99) = (   0.4166667  -0.2500000   0.4166667), wk =   0.0092593
        k(  100) = (   0.4166667  -0.2500000  -0.4166667), wk =   0.0092593
        k(  101) = (   0.4166667  -0.2500000  -0.2500000), wk =   0.0092593
        k(  102) = (   0.4166667  -0.2500000  -0.0833333), wk =   0.0092593
        k(  103) = (   0.4166667  -0.0833333   0.0833333), wk =   0.0092593
        k(  104) = (   0.4166667  -0.0833333   0.2500000), wk =   0.0092593
        k(  105) = (   0.4166667  -0.0833333   0.4166667), wk =   0.0092593
        k(  106) = (   0.4166667  -0.0833333  -0.4166667), wk =   0.0092593
        k(  107) = (   0.4166667  -0.0833333  -0.2500000), wk =   0.0092593
        k(  108) = (   0.4166667  -0.0833333  -0.0833333), wk =   0.0092593

     Dense  grid:     1779 G-vectors     FFT dimensions: (  27,  15,  15)

     Dynamical RAM for                 wfc:       0.06 MB

     Dynamical RAM for     wfc (w. buffer):       3.32 MB

     Dynamical RAM for             U proj.:       0.03 MB

     Dynamical RAM for  U proj. (w. buff.):       1.85 MB

     Dynamical RAM for           str. fact:       0.05 MB

     Dynamical RAM for           local pot:       0.00 MB

     Dynamical RAM for          nlocal pot:       0.12 MB

     Dynamical RAM for                qrad:       1.44 MB

     Dynamical RAM for          rho,v,vnew:       0.44 MB

     Dynamical RAM for               rhoin:       0.15 MB

     Dynamical RAM for            rho*nmix:       0.87 MB

     Dynamical RAM for           G-vectors:       0.12 MB

     Dynamical RAM for          h,s,v(r/c):       0.06 MB

     Dynamical RAM for          <psi|beta>:       0.01 MB

     Dynamical RAM for                 psi:       0.12 MB

     Dynamical RAM for                hpsi:       0.12 MB

     Dynamical RAM for                spsi:       0.12 MB

     Dynamical RAM for      wfcinit/wfcrot:       0.13 MB

     Dynamical RAM for           addusdens:       1.31 MB

     Estimated static dynamical RAM per process >       7.85 MB

     Estimated max dynamical RAM per process >      10.03 MB

     Estimated total dynamical RAM >      37.51 MB

     Check: negative core charge=   -0.000061
     Generating pointlists ...
     new r_m :   0.2063 (alat units)  1.9324 (a.u.) for type    1
     new r_m :   0.2063 (alat units)  1.9324 (a.u.) for type    2

     Initial potential from superposition of free atoms

     starting charge   19.99954, renormalised to   20.00000
 --- in v_hubbard ---
Hubbard energy    0.3528
 -------
     Number of +U iterations with fixed ns =  0
     Starting occupations:
 --- enter write_ns ---
 LDA+U parameters:
U( 1)     =  4.00000000
U( 2)     =  4.00000000
atom    1   Tr[ns(na)] (up, down, total) =   5.00000  3.00000  8.00000
   spin  1
    eigenvalues: 
  1.000  1.000  1.000  1.000  1.000
    eigenvectors:
  1.000  0.000  0.000  0.000  0.000
  0.000  1.000  0.000  0.000  0.000
  0.000  0.000  1.000  0.000  0.000
  0.000  0.000  0.000  1.000  0.000
  0.000  0.000  0.000  0.000  1.000
    occupations:
  1.000  0.000  0.000  0.000  0.000
  0.000  1.000  0.000  0.000  0.000
  0.000  0.000  1.000  0.000  0.000
  0.000  0.000  0.000  1.000  0.000
  0.000  0.000  0.000  0.000  1.000
   spin  2
    eigenvalues: 
  0.600  0.600  0.600  0.600  0.600
    eigenvectors:
  1.000  0.000  0.000  0.000  0.000
  0.000  1.000  0.000  0.000  0.000
  0.000  0.000  1.000  0.000  0.000
  0.000  0.000  0.000  1.000  0.000
  0.000  0.000  0.000  0.000  1.000
    occupations:
  0.600  0.000  0.000  0.000  0.000
  0.000  0.600  0.000  0.000  0.000
  0.000  0.000  0.600  0.000  0.000
  0.000  0.000  0.000  0.600  0.000
  0.000  0.000  0.000  0.000  0.600
atomic mag. moment =   2.00000
atom    2   Tr[ns(na)] (up, down, total) =   3.00000  5.00000  8.00000
   spin  1
    eigenvalues: 
  0.600  0.600  0.600  0.600  0.600
    eigenvectors:
  1.000  0.000  0.000  0.000  0.000
  0.000  1.000  0.000  0.000  0.000
  0.000  0.000  1.000  0.000  0.000
  0.000  0.000  0.000  1.000  0.000
  0.000  0.000  0.000  0.000  1.000
    occupations:
  0.600  0.000  0.000  0.000  0.000
  0.000  0.600  0.000  0.000  0.000
  0.000  0.000  0.600  0.000  0.000
  0.000  0.000  0.000  0.600  0.000
  0.000  0.000  0.000  0.000  0.600
   spin  2
    eigenvalues: 
  1.000  1.000  1.000  1.000  1.000
    eigenvectors:
  1.000  0.000  0.000  0.000  0.000
  0.000  1.000  0.000  0.000  0.000
  0.000  0.000  1.000  0.000  0.000
  0.000  0.000  0.000  1.000  0.000
  0.000  0.000  0.000  0.000  1.000
    occupations:
  1.000  0.000  0.000  0.000  0.000
  0.000  1.000  0.000  0.000  0.000
  0.000  0.000  1.000  0.000  0.000
  0.000  0.000  0.000  1.000  0.000
  0.000  0.000  0.000  0.000  1.000
atomic mag. moment =  -2.00000
N of occupied +U levels =   16.000000
 --- exit write_ns ---
 Atomic wfc used for LDA+U Projector are NOT orthogonalized
     Starting wfcs are   18 randomized atomic wfcs
     Checking if some PAW data can be deallocated... 
       PAW data deallocated on    2 nodes for type:  1
       PAW data deallocated on    2 nodes for type:  2

     total cpu time spent up to now is        1.0 secs

     Self-consistent Calculation

     iteration #  1     ecut=    20.00 Ry     beta= 0.70
     Davidson diagonalization with overlap
     ethr =  1.00E-02,  avg # of iterations =  5.9
 --- enter write_ns ---
 LDA+U parameters:
U( 1)     =  4.00000000
U( 2)     =  4.00000000
atom    1   Tr[ns(na)] (up, down, total) =   4.27606  3.67050  7.94656
   spin  1
    eigenvalues: 
  0.846  0.848  0.851  0.865  0.866
    eigenvectors:
  0.000  0.778  0.066  0.000  0.156
  0.008  0.162  0.288  0.242  0.300
  0.025  0.054  0.096  0.725  0.100
  0.725  0.002  0.137  0.025  0.111
  0.242  0.005  0.412  0.008  0.333
    occupations:
  0.851 -0.005  0.003  0.002 -0.004
 -0.005  0.858  0.003 -0.001  0.005
  0.003  0.003  0.862  0.004 -0.001
  0.002 -0.001  0.004  0.849 -0.005
 -0.004  0.005 -0.001 -0.005  0.855
   spin  2
    eigenvalues: 
  0.683  0.695  0.735  0.772  0.785
    eigenvectors:
  0.000  0.597  0.152  0.000  0.251
  0.210  0.051  0.206  0.040  0.493
  0.631  0.017  0.069  0.119  0.164
  0.119  0.084  0.143  0.631  0.023
  0.040  0.251  0.430  0.210  0.069
    occupations:
  0.724  0.025 -0.014 -0.013  0.022
  0.025  0.748 -0.029  0.011  0.013
 -0.014 -0.029  0.714  0.026  0.011
 -0.013  0.011  0.026  0.750  0.013
  0.022  0.013  0.011  0.013  0.734
atomic mag. moment =   0.60555
atom    2   Tr[ns(na)] (up, down, total) =   3.66137  4.27733  7.93871
   spin  1
    eigenvalues: 
  0.682  0.698  0.727  0.776  0.778
    eigenvectors:
  0.000  0.615  0.191  0.194  0.000
  0.215  0.025  0.198  0.527  0.035
  0.644  0.008  0.066  0.176  0.106
  0.106  0.088  0.136  0.026  0.644
  0.035  0.264  0.408  0.078  0.215
    occupations:
  0.719  0.019 -0.011 -0.010  0.018
  0.019  0.744 -0.028  0.010  0.016
 -0.011 -0.028  0.712  0.028  0.010
 -0.010  0.010  0.028  0.754  0.018
  0.018  0.016  0.010  0.018  0.732
   spin  2
    eigenvalues: 
  0.847  0.848  0.851  0.865  0.866
    eigenvectors:
  0.000  0.777  0.061  0.000  0.162
  0.007  0.160  0.296  0.243  0.293
  0.020  0.053  0.099  0.730  0.098
  0.730  0.002  0.136  0.020  0.112
  0.243  0.007  0.408  0.007  0.335
    occupations:
  0.851 -0.004  0.003  0.002 -0.004
 -0.004  0.858  0.004 -0.001  0.005
  0.003  0.004  0.863  0.004 -0.001
  0.002 -0.001  0.004  0.850 -0.005
 -0.004  0.005 -0.001 -0.005  0.855
atomic mag. moment =  -0.61596
N of occupied +U levels =   15.885267
 --- exit write_ns ---
 --- in v_hubbard ---
Hubbard energy    0.4670
 -------

     total cpu time spent up to now is        1.9 secs

     total energy              =    -364.64158491 Ry
     estimated scf accuracy    <       0.31419932 Ry

     total magnetization       =    -0.01 Bohr mag/cell
     absolute magnetization    =     1.66 Bohr mag/cell

     iteration #  2     ecut=    20.00 Ry     beta= 0.70
     Davidson diagonalization with overlap
     ethr =  1.57E-03,  avg # of iterations =  2.1
 --- enter write_ns ---
 LDA+U parameters:
U( 1)     =  4.00000000
U( 2)     =  4.00000000
atom    1   Tr[ns(na)] (up, down, total) =   4.35345  4.02008  8.37353
   spin  1
    eigenvalues: 
  0.866  0.867  0.869  0.875  0.875
    eigenvectors:
  0.000  0.535  0.227  0.000  0.238
  0.000  0.348  0.224  0.250  0.178
  0.000  0.116  0.075  0.750  0.059
  0.750  0.000  0.119  0.000  0.131
  0.250  0.001  0.356  0.000  0.393
    occupations:
  0.870 -0.002  0.001  0.001 -0.002
 -0.002  0.871  0.002 -0.001  0.002
  0.001  0.002  0.874  0.001 -0.001
  0.001 -0.001  0.001  0.868 -0.003
 -0.002  0.002 -0.001 -0.003  0.871
   spin  2
    eigenvalues: 
  0.734  0.761  0.810  0.857  0.858
    eigenvectors:
  0.000  0.678  0.048  0.000  0.274
  0.218  0.103  0.180  0.032  0.467
  0.653  0.034  0.060  0.097  0.156
  0.097  0.046  0.178  0.653  0.026
  0.032  0.138  0.534  0.218  0.078
    occupations:
  0.790  0.030 -0.017 -0.013  0.022
  0.030  0.812 -0.036  0.016  0.014
 -0.017 -0.036  0.771  0.032  0.016
 -0.013  0.016  0.032  0.832  0.015
  0.022  0.014  0.016  0.015  0.815
atomic mag. moment =   0.33337
atom    2   Tr[ns(na)] (up, down, total) =   4.10076  4.35505  8.45581
   spin  1
    eigenvalues: 
  0.765  0.791  0.823  0.860  0.861
    eigenvectors:
  0.000  0.709  0.059  0.232  0.000
  0.215  0.077  0.183  0.490  0.035
  0.644  0.026  0.061  0.163  0.106
  0.106  0.047  0.174  0.028  0.644
  0.035  0.141  0.523  0.085  0.215
    occupations:
  0.809  0.020 -0.012 -0.009  0.016
  0.020  0.828 -0.028  0.012  0.012
 -0.012 -0.028  0.795  0.026  0.012
 -0.009  0.012  0.026  0.841  0.011
  0.016  0.012  0.012  0.011  0.828
   spin  2
    eigenvalues: 
  0.866  0.867  0.870  0.876  0.876
    eigenvectors:
  0.000  0.526  0.241  0.000  0.233
  0.000  0.355  0.207  0.250  0.188
  0.000  0.118  0.069  0.750  0.063
  0.750  0.000  0.121  0.000  0.129
  0.250  0.000  0.362  0.000  0.388
    occupations:
  0.870 -0.002  0.001  0.001 -0.002
 -0.002  0.872  0.002 -0.001  0.002
  0.001  0.002  0.874  0.001 -0.001
  0.001 -0.001  0.001  0.868 -0.003
 -0.002  0.002 -0.001 -0.003  0.871
atomic mag. moment =  -0.25429
N of occupied +U levels =   16.829335
 --- exit write_ns ---
 --- in v_hubbard ---
Hubbard energy    0.4469
 -------

     total cpu time spent up to now is        2.6 secs

     total energy              =    -364.69111874 Ry
     estimated scf accuracy    <       0.69732330 Ry

     total magnetization       =     0.10 Bohr mag/cell
     absolute magnetization    =     0.86 Bohr mag/cell

     iteration #  3     ecut=    20.00 Ry     beta= 0.70
     Davidson diagonalization with overlap
     ethr =  1.57E-03,  avg # of iterations =  1.8
 --- enter write_ns ---
 LDA+U parameters:
U( 1)     =  4.00000000
U( 2)     =  4.00000000
atom    1   Tr[ns(na)] (up, down, total) =   4.27486  4.05837  8.33322
   spin  1
    eigenvalues: 
  0.843  0.844  0.851  0.868  0.869
    eigenvectors:
  0.000  0.638  0.144  0.000  0.218
  0.001  0.271  0.226  0.249  0.253
  0.003  0.090  0.075  0.747  0.084
  0.747  0.000  0.139  0.003  0.111
  0.249  0.001  0.416  0.001  0.333
    occupations:
  0.851 -0.007  0.004  0.003 -0.005
 -0.007  0.858  0.006 -0.002  0.006
  0.004  0.006  0.865  0.003 -0.002
  0.003 -0.002  0.003  0.847 -0.007
 -0.005  0.006 -0.002 -0.007  0.855
   spin  2
    eigenvalues: 
  0.784  0.787  0.798  0.843  0.846
    eigenvectors:
  0.000  0.669  0.148  0.000  0.183
  0.187  0.026  0.209  0.063  0.515
  0.561  0.009  0.070  0.189  0.172
  0.189  0.074  0.143  0.561  0.032
  0.063  0.223  0.430  0.187  0.097
    occupations:
  0.799  0.016 -0.009 -0.006  0.011
  0.016  0.823 -0.014  0.005  0.016
 -0.009 -0.014  0.807  0.022  0.005
 -0.006  0.005  0.022  0.821  0.012
  0.011  0.016  0.005  0.012  0.808
atomic mag. moment =   0.21649
atom    2   Tr[ns(na)] (up, down, total) =   3.73039  4.24691  7.97730
   spin  1
    eigenvalues: 
  0.682  0.707  0.709  0.816  0.817
    eigenvectors:
  0.000  0.007  0.776  0.000  0.217
  0.212  0.143  0.112  0.038  0.494
  0.635  0.048  0.037  0.115  0.165
  0.115  0.200  0.019  0.635  0.031
  0.038  0.601  0.056  0.212  0.093
    occupations:
  0.732  0.035 -0.020 -0.009  0.015
  0.035  0.760 -0.033  0.007  0.036
 -0.020 -0.033  0.722  0.044  0.007
 -0.009  0.007  0.044  0.777  0.032
  0.015  0.036  0.007  0.032  0.739
   spin  2
    eigenvalues: 
  0.840  0.842  0.845  0.860  0.860
    eigenvectors:
  0.000  0.761  0.015  0.224  0.000
  0.002  0.030  0.471  0.249  0.248
  0.006  0.010  0.157  0.083  0.744
  0.744  0.050  0.089  0.111  0.006
  0.248  0.149  0.268  0.333  0.002
    occupations:
  0.846 -0.004  0.002  0.003 -0.005
 -0.004  0.852  0.004 -0.002  0.005
  0.002  0.004  0.857  0.003 -0.002
  0.003 -0.002  0.003  0.843 -0.005
 -0.005  0.005 -0.002 -0.005  0.848
atomic mag. moment =  -0.51653
N of occupied +U levels =   16.310520
 --- exit write_ns ---
 --- in v_hubbard ---
Hubbard energy    0.4450
 -------

     total cpu time spent up to now is        3.3 secs

     total energy              =    -364.78000605 Ry
     estimated scf accuracy    <       0.10968602 Ry

     total magnetization       =    -0.36 Bohr mag/cell
     absolute magnetization    =     1.02 Bohr mag/cell

     iteration #  4     ecut=    20.00 Ry     beta= 0.70
     Davidson diagonalization with overlap
     ethr =  5.48E-04,  avg # of iterations =  1.1
 --- enter write_ns ---
 LDA+U parameters:
U( 1)     =  4.00000000
U( 2)     =  4.00000000
atom    1   Tr[ns(na)] (up, down, total) =   4.20551  3.55176  7.75727
   spin  1
    eigenvalues: 
  0.836  0.836  0.837  0.847  0.850
    eigenvectors:
  0.000  0.133  0.802  0.065  0.000
  0.013  0.221  0.000  0.529  0.237
  0.039  0.074  0.000  0.176  0.711
  0.711  0.143  0.049  0.057  0.039
  0.237  0.429  0.148  0.172  0.013
    occupations:
  0.838 -0.002  0.001  0.000 -0.001
 -0.002  0.845  0.002 -0.001  0.004
  0.001  0.002  0.848  0.004 -0.001
  0.000 -0.001  0.004  0.837 -0.001
 -0.001  0.004 -0.001 -0.001  0.838
   spin  2
    eigenvalues: 
  0.654  0.671  0.677  0.770  0.780
    eigenvectors:
  0.000  0.771  0.008  0.000  0.221
  0.209  0.163  0.110  0.041  0.476
  0.627  0.054  0.037  0.123  0.159
  0.123  0.003  0.211  0.627  0.036
  0.041  0.009  0.633  0.209  0.108
    occupations:
  0.695  0.036 -0.021 -0.010  0.016
  0.036  0.724 -0.030  0.005  0.034
 -0.021 -0.030  0.690  0.040  0.005
 -0.010  0.005  0.040  0.736  0.026
  0.016  0.034  0.005  0.026  0.706
atomic mag. moment =   0.65375
atom    2   Tr[ns(na)] (up, down, total) =   4.23415  4.29211  8.52626
   spin  1
    eigenvalues: 
  0.836  0.841  0.843  0.857  0.857
    eigenvectors:
  0.086  0.000  0.857  0.057  0.000
  0.175  0.145  0.004  0.571  0.105
  0.058  0.436  0.001  0.190  0.314
  0.170  0.314  0.034  0.046  0.436
  0.510  0.105  0.103  0.137  0.145
    occupations:
  0.843  0.003 -0.002  0.000 -0.000
  0.003  0.851 -0.002  0.000  0.008
 -0.002 -0.002  0.849  0.008  0.000
  0.000  0.000  0.008  0.848  0.004
 -0.000  0.008  0.000  0.004  0.843
   spin  2
    eigenvalues: 
  0.846  0.847  0.856  0.871  0.872
    eigenvectors:
  0.000  0.637  0.134  0.000  0.229
  0.001  0.271  0.226  0.249  0.254
  0.002  0.090  0.075  0.748  0.085
  0.748  0.001  0.141  0.002  0.108
  0.249  0.002  0.424  0.001  0.324
    occupations:
  0.854 -0.008  0.004  0.003 -0.005
 -0.008  0.861  0.006 -0.002  0.005
  0.004  0.006  0.868  0.002 -0.002
  0.003 -0.002  0.002  0.850 -0.007
 -0.005  0.005 -0.002 -0.007  0.859
atomic mag. moment =  -0.05795
N of occupied +U levels =   16.283527
 --- exit write_ns ---
 --- in v_hubbard ---
Hubbard energy    0.4384
 -------

     total cpu time spent up to now is        3.9 secs

     total energy              =    -364.78347019 Ry
     estimated scf accuracy    <       0.49071030 Ry

     total magnetization       =     0.72 Bohr mag/cell
     absolute magnetization    =     0.97 Bohr mag/cell

     iteration #  5     ecut=    20.00 Ry     beta= 0.70
     Davidson diagonalization with overlap
     ethr =  5.48E-04,  avg # of iterations =  1.2
 --- enter write_ns ---
 LDA+U parameters:
U( 1)     =  4.00000000
U( 2)     =  4.00000000
atom    1   Tr[ns(na)] (up, down, total) =   4.23313  3.94420  8.17733
   spin  1
    eigenvalues: 
  0.832  0.834  0.844  0.861  0.862
    eigenvectors:
  0.000  0.720  0.086  0.000  0.194
  0.003  0.201  0.304  0.247  0.246
  0.010  0.067  0.101  0.740  0.082
  0.740  0.003  0.127  0.010  0.120
  0.247  0.009  0.382  0.003  0.359
    occupations:
  0.840 -0.008  0.004  0.003 -0.005
 -0.008  0.851  0.006 -0.001  0.006
  0.004  0.006  0.857  0.004 -0.001
  0.003 -0.001  0.004  0.838 -0.009
 -0.005  0.006 -0.001 -0.009  0.848
   spin  2
    eigenvalues: 
  0.753  0.755  0.757  0.838  0.841
    eigenvectors:
  0.000  0.676  0.135  0.000  0.189
  0.191  0.028  0.215  0.059  0.506
  0.573  0.009  0.072  0.177  0.169
  0.177  0.071  0.145  0.573  0.034
  0.059  0.214  0.434  0.191  0.102
    occupations:
  0.771  0.026 -0.015 -0.007  0.012
  0.026  0.803 -0.017  0.005  0.028
 -0.015 -0.017  0.783  0.033  0.005
 -0.007  0.005  0.033  0.806  0.022
  0.012  0.028  0.005  0.022  0.780
atomic mag. moment =   0.28893
atom    2   Tr[ns(na)] (up, down, total) =   3.90178  4.24182  8.14360
   spin  1
    eigenvalues: 
  0.734  0.738  0.750  0.839  0.840
    eigenvectors:
  0.072  0.000  0.735  0.000  0.193
  0.196  0.199  0.051  0.051  0.504
  0.065  0.597  0.017  0.153  0.168
  0.167  0.153  0.049  0.597  0.034
  0.500  0.051  0.148  0.199  0.102
    occupations:
  0.766  0.030 -0.017 -0.006  0.010
  0.030  0.794 -0.020  0.003  0.035
 -0.017 -0.020  0.771  0.039  0.003
 -0.006  0.003  0.039  0.802  0.029
  0.010  0.035  0.003  0.029  0.768
   spin  2
    eigenvalues: 
  0.835  0.837  0.846  0.861  0.862
    eigenvectors:
  0.000  0.718  0.061  0.000  0.221
  0.001  0.187  0.337  0.249  0.226
  0.004  0.062  0.112  0.746  0.075
  0.746  0.008  0.122  0.004  0.119
  0.249  0.024  0.367  0.001  0.358
    occupations:
  0.843 -0.007  0.004  0.003 -0.006
 -0.007  0.852  0.005 -0.001  0.004
  0.004  0.005  0.858  0.003 -0.001
  0.003 -0.001  0.003  0.840 -0.008
 -0.006  0.004 -0.001 -0.008  0.849
atomic mag. moment =  -0.34004
N of occupied +U levels =   16.320920
 --- exit write_ns ---
 --- in v_hubbard ---
Hubbard energy    0.4356
 -------

     total cpu time spent up to now is        4.5 secs

     total energy              =    -364.80812277 Ry
     estimated scf accuracy    <       0.00154554 Ry

     total magnetization       =    -0.06 Bohr mag/cell
     absolute magnetization    =     0.88 Bohr mag/cell

     iteration #  6     ecut=    20.00 Ry     beta= 0.70
     Davidson diagonalization with overlap
     ethr =  7.73E-06,  avg # of iterations =  4.3
 --- enter write_ns ---
 LDA+U parameters:
U( 1)     =  4.00000000
U( 2)     =  4.00000000
atom    1   Tr[ns(na)] (up, down, total) =   4.21568  3.95363  8.16931
   spin  1
    eigenvalues: 
  0.826  0.828  0.843  0.858  0.860
    eigenvectors:
  0.000  0.720  0.101  0.000  0.180
  0.004  0.205  0.293  0.246  0.252
  0.013  0.068  0.098  0.737  0.084
  0.737  0.002  0.127  0.013  0.121
  0.246  0.005  0.382  0.004  0.363
    occupations:
  0.836 -0.009  0.005  0.003 -0.005
 -0.009  0.848  0.006 -0.001  0.006
  0.005  0.006  0.855  0.005 -0.001
  0.003 -0.001  0.005  0.833 -0.011
 -0.005  0.006 -0.001 -0.011  0.845
   spin  2
    eigenvalues: 
  0.746  0.758  0.763  0.842  0.844
    eigenvectors:
  0.026  0.790  0.000  0.000  0.183
  0.170  0.072  0.189  0.061  0.508
  0.057  0.024  0.567  0.183  0.169
  0.187  0.028  0.183  0.567  0.035
  0.561  0.085  0.061  0.189  0.104
    occupations:
  0.773  0.027 -0.016 -0.006  0.011
  0.027  0.806 -0.013  0.001  0.032
 -0.016 -0.013  0.790  0.033  0.001
 -0.006  0.001  0.033  0.808  0.027
  0.011  0.032  0.001  0.027  0.777
atomic mag. moment =   0.26204
atom    2   Tr[ns(na)] (up, down, total) =   3.92283  4.23491  8.15774
   spin  1
    eigenvalues: 
  0.724  0.755  0.757  0.843  0.844
    eigenvectors:
  0.074  0.000  0.747  0.000  0.179
  0.200  0.192  0.043  0.058  0.507
  0.067  0.575  0.014  0.175  0.169
  0.165  0.175  0.049  0.575  0.036
  0.495  0.058  0.147  0.192  0.109
    occupations:
  0.770  0.030 -0.017 -0.003  0.006
  0.030  0.799 -0.014 -0.001  0.040
 -0.017 -0.014  0.783  0.038 -0.001
 -0.003 -0.001  0.038  0.804  0.032
  0.006  0.040 -0.001  0.032  0.767
   spin  2
    eigenvalues: 
  0.832  0.834  0.848  0.860  0.861
    eigenvectors:
  0.000  0.702  0.089  0.000  0.209
  0.002  0.210  0.316  0.248  0.224
  0.005  0.070  0.105  0.745  0.075
  0.745  0.004  0.122  0.005  0.123
  0.248  0.013  0.367  0.002  0.369
    occupations:
  0.841 -0.008  0.005  0.003 -0.005
 -0.008  0.851  0.005 -0.001  0.004
  0.005  0.005  0.857  0.003 -0.001
  0.003 -0.001  0.003  0.837 -0.010
 -0.005  0.004 -0.001 -0.010  0.849
atomic mag. moment =  -0.31209
N of occupied +U levels =   16.327050
 --- exit write_ns ---
 --- in v_hubbard ---
Hubbard energy    0.4349
 -------

     total cpu time spent up to now is        5.2 secs

     total energy              =    -364.80873441 Ry
     estimated scf accuracy    <       0.00041988 Ry

     total magnetization       =    -0.06 Bohr mag/cell
     absolute magnetization    =     0.81 Bohr mag/cell

     iteration #  7     ecut=    20.00 Ry     beta= 0.70
     Davidson diagonalization with overlap
     ethr =  2.10E-06,  avg # of iterations =  2.6
 --- enter write_ns ---
 LDA+U parameters:
U( 1)     =  4.00000000
U( 2)     =  4.00000000
atom    1   Tr[ns(na)] (up, down, total) =   4.20341  3.96892  8.17233
   spin  1
    eigenvalues: 
  0.821  0.824  0.844  0.857  0.859
    eigenvectors:
  0.000  0.736  0.107  0.000  0.157
  0.007  0.196  0.299  0.243  0.256
  0.020  0.065  0.100  0.730  0.085
  0.730  0.001  0.124  0.020  0.126
  0.243  0.003  0.371  0.007  0.377
    occupations:
  0.831 -0.011  0.006  0.003 -0.005
 -0.011  0.847  0.005  0.000  0.006
  0.006  0.005  0.853  0.006  0.000
  0.003  0.000  0.006  0.829 -0.013
 -0.005  0.006  0.000 -0.013  0.844
   spin  2
    eigenvalues: 
  0.741  0.762  0.775  0.845  0.846
    eigenvectors:
  0.029  0.786  0.000  0.000  0.186
  0.170  0.072  0.189  0.061  0.508
  0.057  0.024  0.567  0.183  0.169
  0.186  0.030  0.183  0.567  0.034
  0.559  0.089  0.061  0.189  0.102
    occupations:
  0.777  0.027 -0.016 -0.005  0.009
  0.027  0.809 -0.010 -0.002  0.033
 -0.016 -0.010  0.798  0.031 -0.002
 -0.005 -0.002  0.031  0.810  0.030
  0.009  0.033 -0.002  0.030  0.775
atomic mag. moment =   0.23449
atom    2   Tr[ns(na)] (up, down, total) =   3.92180  4.23132  8.15312
   spin  1
    eigenvalues: 
  0.711  0.758  0.763  0.845  0.845
    eigenvectors:
  0.076  0.749  0.000  0.000  0.175
  0.201  0.041  0.188  0.062  0.508
  0.067  0.014  0.564  0.186  0.169
  0.164  0.049  0.186  0.564  0.037
  0.492  0.148  0.062  0.188  0.111
    occupations:
  0.770  0.032 -0.018 -0.002  0.003
  0.032  0.799 -0.009 -0.005  0.044
 -0.018 -0.009  0.788  0.038 -0.005
 -0.002 -0.005  0.038  0.803  0.036
  0.003  0.044 -0.005  0.036  0.761
   spin  2
    eigenvalues: 
  0.830  0.832  0.849  0.859  0.861
    eigenvectors:
  0.000  0.707  0.103  0.000  0.190
  0.003  0.211  0.315  0.247  0.224
  0.008  0.070  0.105  0.742  0.075
  0.742  0.003  0.119  0.008  0.128
  0.247  0.009  0.358  0.003  0.384
    occupations:
  0.839 -0.009  0.005  0.003 -0.004
 -0.009  0.851  0.005 -0.000  0.003
  0.005  0.005  0.856  0.003 -0.000
  0.003 -0.000  0.003  0.836 -0.011
 -0.004  0.003 -0.000 -0.011  0.849
atomic mag. moment =  -0.30952
N of occupied +U levels =   16.325450
 --- exit write_ns ---
 --- in v_hubbard ---
Hubbard energy    0.4350
 -------

     total cpu time spent up to now is        5.9 secs

     total energy              =    -364.80904547 Ry
     estimated scf accuracy    <       0.00030413 Ry

     total magnetization       =    -0.10 Bohr mag/cell
     absolute magnetization    =     0.77 Bohr mag/cell

     iteration #  8     ecut=    20.00 Ry     beta= 0.70
     Davidson diagonalization with overlap
     ethr =  1.52E-06,  avg # of iterations =  1.2
 --- enter write_ns ---
 LDA+U parameters:
U( 1)     =  4.00000000
U( 2)     =  4.00000000
atom    1   Tr[ns(na)] (up, down, total) =   4.19185  3.98613  8.17799
   spin  1
    eigenvalues: 
  0.815  0.819  0.844  0.855  0.858
    eigenvectors:
  0.000  0.760  0.110  0.000  0.129
  0.011  0.179  0.310  0.239  0.262
  0.033  0.060  0.103  0.717  0.087
  0.717  0.000  0.119  0.033  0.130
  0.239  0.001  0.358  0.011  0.391
    occupations:
  0.827 -0.012  0.007  0.002 -0.004
 -0.012  0.846  0.005  0.001  0.006
  0.007  0.005  0.851  0.008  0.001
  0.002  0.001  0.008  0.826 -0.015
 -0.004  0.006  0.001 -0.015  0.843
   spin  2
    eigenvalues: 
  0.738  0.767  0.787  0.847  0.847
    eigenvectors:
  0.025  0.778  0.000  0.000  0.197
  0.164  0.082  0.192  0.058  0.505
  0.055  0.027  0.576  0.174  0.168
  0.189  0.028  0.174  0.576  0.033
  0.568  0.085  0.058  0.192  0.098
    occupations:
  0.782  0.027 -0.016 -0.004  0.008
  0.027  0.811 -0.006 -0.004  0.033
 -0.016 -0.006  0.804  0.028 -0.004
 -0.004 -0.004  0.028  0.814  0.034
  0.008  0.033 -0.004  0.034  0.775
atomic mag. moment =   0.20572
atom    2   Tr[ns(na)] (up, down, total) =   3.91436  4.23296  8.14732
   spin  1
    eigenvalues: 
  0.697  0.758  0.769  0.845  0.846
    eigenvectors:
  0.080  0.744  0.000  0.000  0.176
  0.203  0.040  0.186  0.064  0.508
  0.068  0.013  0.559  0.191  0.169
  0.162  0.051  0.191  0.559  0.037
  0.487  0.152  0.064  0.186  0.110
    occupations:
  0.768  0.034 -0.020 -0.000  0.000
  0.034  0.798 -0.005 -0.009  0.048
 -0.020 -0.005  0.792  0.038 -0.009
 -0.000 -0.009  0.038  0.802  0.041
  0.000  0.048 -0.009  0.041  0.755
   spin  2
    eigenvalues: 
  0.830  0.832  0.851  0.859  0.860
    eigenvectors:
  0.000  0.711  0.115  0.000  0.174
  0.004  0.212  0.316  0.246  0.223
  0.013  0.071  0.105  0.737  0.074
  0.737  0.002  0.116  0.013  0.132
  0.246  0.006  0.348  0.004  0.397
    occupations:
  0.839 -0.009  0.005  0.002 -0.004
 -0.009  0.851  0.004  0.000  0.003
  0.005  0.004  0.856  0.004  0.000
  0.002  0.000  0.004  0.837 -0.011
 -0.004  0.003  0.000 -0.011  0.850
atomic mag. moment =  -0.31860
N of occupied +U levels =   16.325303
 --- exit write_ns ---
 --- in v_hubbard ---
Hubbard energy    0.4350
 -------

     total cpu time spent up to now is        6.5 secs

     total energy              =    -364.80902853 Ry
     estimated scf accuracy    <       0.00046662 Ry

     total magnetization       =    -0.14 Bohr mag/cell
     absolute magnetization    =     0.75 Bohr mag/cell

     iteration #  9     ecut=    20.00 Ry     beta= 0.70
     Davidson diagonalization with overlap
     ethr =  1.52E-06,  avg # of iterations =  1.1
 --- enter write_ns ---
 LDA+U parameters:
U( 1)     =  4.00000000
U( 2)     =  4.00000000
atom    1   Tr[ns(na)] (up, down, total) =   4.19801  3.97601  8.17402
   spin  1
    eigenvalues: 
  0.818  0.822  0.844  0.856  0.858
    eigenvectors:
  0.000  0.747  0.110  0.000  0.143
  0.009  0.188  0.304  0.241  0.257
  0.026  0.063  0.101  0.724  0.086
  0.724  0.001  0.121  0.026  0.128
  0.241  0.002  0.363  0.009  0.385
    occupations:
  0.829 -0.011  0.006  0.002 -0.004
 -0.011  0.846  0.005  0.001  0.006
  0.006  0.005  0.852  0.007  0.001
  0.002  0.001  0.007  0.827 -0.014
 -0.004  0.006  0.001 -0.014  0.843
   spin  2
    eigenvalues: 
  0.738  0.764  0.781  0.846  0.847
    eigenvectors:
  0.031  0.780  0.000  0.000  0.189
  0.170  0.072  0.190  0.060  0.507
  0.057  0.024  0.569  0.181  0.169
  0.185  0.031  0.181  0.569  0.034
  0.556  0.093  0.060  0.190  0.101
    occupations:
  0.779  0.028 -0.016 -0.005  0.008
  0.028  0.810 -0.007 -0.003  0.034
 -0.016 -0.007  0.801  0.030 -0.003
 -0.005 -0.003  0.030  0.812  0.033
  0.008  0.034 -0.003  0.033  0.774
atomic mag. moment =   0.22200
atom    2   Tr[ns(na)] (up, down, total) =   3.92151  4.23000  8.15151
   spin  1
    eigenvalues: 
  0.705  0.758  0.768  0.845  0.846
    eigenvectors:
  0.076  0.749  0.000  0.000  0.175
  0.201  0.041  0.187  0.063  0.508
  0.067  0.014  0.560  0.190  0.169
  0.164  0.049  0.190  0.560  0.037
  0.492  0.148  0.063  0.187  0.111
    occupations:
  0.770  0.033 -0.019 -0.001  0.002
  0.033  0.799 -0.007 -0.007  0.046
 -0.019 -0.007  0.791  0.038 -0.007
 -0.001 -0.007  0.038  0.803  0.039
  0.002  0.046 -0.007  0.039  0.758
   spin  2
    eigenvalues: 
  0.829  0.832  0.850  0.859  0.860
    eigenvectors:
  0.000  0.713  0.109  0.000  0.178
  0.004  0.209  0.317  0.246  0.224
  0.012  0.070  0.106  0.738  0.075
  0.738  0.002  0.117  0.012  0.131
  0.246  0.007  0.351  0.004  0.392
    occupations:
  0.839 -0.009  0.005  0.002 -0.004
 -0.009  0.851  0.004  0.000  0.003
  0.005  0.004  0.856  0.004  0.000
  0.002  0.000  0.004  0.836 -0.011
 -0.004  0.003  0.000 -0.011  0.849
atomic mag. moment =  -0.30848
N of occupied +U levels =   16.325533
 --- exit write_ns ---
 --- in v_hubbard ---
Hubbard energy    0.4352
 -------

     total cpu time spent up to now is        7.1 secs

     total energy              =    -364.80900510 Ry
     estimated scf accuracy    <       0.00031658 Ry

     total magnetization       =    -0.11 Bohr mag/cell
     absolute magnetization    =     0.75 Bohr mag/cell

     iteration # 10     ecut=    20.00 Ry     beta= 0.70
     Davidson diagonalization with overlap
     ethr =  1.52E-06,  avg # of iterations =  1.1
 --- enter write_ns ---
 LDA+U parameters:
U( 1)     =  4.00000000
U( 2)     =  4.00000000
atom    1   Tr[ns(na)] (up, down, total) =   4.20465  3.96451  8.16916
   spin  1
    eigenvalues: 
  0.820  0.824  0.846  0.857  0.859
    eigenvectors:
  0.000  0.735  0.114  0.000  0.151
  0.008  0.197  0.301  0.242  0.252
  0.023  0.066  0.100  0.727  0.084
  0.727  0.001  0.121  0.023  0.128
  0.242  0.002  0.363  0.008  0.385
    occupations:
  0.831 -0.011  0.006  0.002 -0.004
 -0.011  0.847  0.005  0.001  0.005
  0.006  0.005  0.853  0.006  0.001
  0.002  0.001  0.006  0.829 -0.013
 -0.004  0.005  0.001 -0.013  0.845
   spin  2
    eigenvalues: 
  0.731  0.762  0.779  0.846  0.847
    eigenvectors:
  0.049  0.767  0.000  0.000  0.183
  0.182  0.058  0.188  0.062  0.510
  0.061  0.019  0.563  0.187  0.170
  0.177  0.039  0.187  0.563  0.034
  0.531  0.116  0.062  0.188  0.103
    occupations:
  0.776  0.029 -0.017 -0.004  0.006
  0.029  0.808 -0.007 -0.004  0.036
 -0.017 -0.007  0.800  0.032 -0.004
 -0.004 -0.004  0.032  0.810  0.034
  0.006  0.036 -0.004  0.034  0.771
atomic mag. moment =   0.24015
atom    2   Tr[ns(na)] (up, down, total) =   3.93382  4.22251  8.15634
   spin  1
    eigenvalues: 
  0.710  0.760  0.772  0.846  0.846
    eigenvectors:
  0.066  0.757  0.000  0.000  0.177
  0.198  0.046  0.187  0.063  0.507
  0.066  0.015  0.560  0.190  0.169
  0.168  0.046  0.190  0.560  0.037
  0.503  0.137  0.063  0.187  0.110
    occupations:
  0.772  0.031 -0.018 -0.002  0.003
  0.031  0.801 -0.006 -0.007  0.044
 -0.018 -0.006  0.794  0.036 -0.007
 -0.002 -0.007  0.036  0.805  0.038
  0.003  0.044 -0.007  0.038  0.761
   spin  2
    eigenvalues: 
  0.827  0.829  0.849  0.858  0.860
    eigenvectors:
  0.000  0.729  0.104  0.000  0.167
  0.005  0.197  0.325  0.245  0.228
  0.015  0.066  0.108  0.735  0.076
  0.735  0.002  0.116  0.015  0.132
  0.245  0.006  0.347  0.005  0.397
    occupations:
  0.836 -0.010  0.006  0.002 -0.004
 -0.010  0.850  0.004  0.000  0.004
  0.006  0.004  0.855  0.004  0.000
  0.002  0.000  0.004  0.834 -0.012
 -0.004  0.004  0.000 -0.012  0.848
atomic mag. moment =  -0.28869
N of occupied +U levels =   16.325495
 --- exit write_ns ---
 --- in v_hubbard ---
Hubbard energy    0.4349
 -------

     total cpu time spent up to now is        7.8 secs

     total energy              =    -364.80893806 Ry
     estimated scf accuracy    <       0.00018991 Ry

     total magnetization       =    -0.06 Bohr mag/cell
     absolute magnetization    =     0.75 Bohr mag/cell

     iteration # 11     ecut=    20.00 Ry     beta= 0.70
     Davidson diagonalization with overlap
     ethr =  9.50E-07,  avg # of iterations =  1.2
 --- enter write_ns ---
 LDA+U parameters:
U( 1)     =  4.00000000
U( 2)     =  4.00000000
atom    1   Tr[ns(na)] (up, down, total) =   4.19967  3.96759  8.16727
   spin  1
    eigenvalues: 
  0.816  0.820  0.849  0.856  0.858
    eigenvectors:
  0.000  0.765  0.130  0.000  0.105
  0.016  0.176  0.330  0.234  0.244
  0.048  0.059  0.110  0.702  0.081
  0.702  0.000  0.108  0.048  0.142
  0.234  0.000  0.323  0.016  0.427
    occupations:
  0.828 -0.012  0.007  0.001 -0.002
 -0.012  0.847  0.003  0.003  0.005
  0.007  0.003  0.851  0.008  0.003
  0.001  0.003  0.008  0.828 -0.015
 -0.002  0.005  0.003 -0.015  0.845
   spin  2
    eigenvalues: 
  0.707  0.768  0.796  0.848  0.848
    eigenvectors:
  0.061  0.739  0.000  0.000  0.200
  0.186  0.060  0.192  0.058  0.504
  0.062  0.020  0.575  0.175  0.168
  0.173  0.045  0.175  0.575  0.032
  0.518  0.136  0.058  0.192  0.096
    occupations:
  0.780  0.032 -0.018 -0.000  0.000
  0.032  0.807  0.001 -0.012  0.042
 -0.018  0.001  0.808  0.029 -0.012
 -0.000 -0.012  0.029  0.811  0.043
  0.000  0.042 -0.012  0.043  0.761
atomic mag. moment =   0.23208
atom    2   Tr[ns(na)] (up, down, total) =   3.94539  4.21030  8.15569
   spin  1
    eigenvalues: 
  0.694  0.765  0.792  0.847  0.848
    eigenvectors:
  0.060  0.745  0.000  0.195  0.000
  0.193  0.057  0.190  0.501  0.060
  0.064  0.019  0.569  0.167  0.181
  0.171  0.045  0.181  0.034  0.569
  0.512  0.135  0.060  0.103  0.190
    occupations:
  0.777  0.033 -0.019  0.000 -0.001
  0.033  0.803  0.002 -0.013  0.047
 -0.019  0.002  0.804  0.032 -0.013
  0.000 -0.013  0.032  0.808  0.046
 -0.001  0.047 -0.013  0.046  0.754
   spin  2
    eigenvalues: 
  0.820  0.824  0.851  0.856  0.859
    eigenvectors:
  0.000  0.772  0.120  0.000  0.109
  0.015  0.170  0.358  0.235  0.222
  0.045  0.057  0.119  0.705  0.074
  0.705  0.000  0.101  0.045  0.149
  0.235  0.001  0.303  0.015  0.446
    occupations:
  0.831 -0.011  0.006  0.001 -0.002
 -0.011  0.849  0.003  0.002  0.004
  0.006  0.003  0.852  0.007  0.002
  0.001  0.002  0.007  0.831 -0.014
 -0.002  0.004  0.002 -0.014  0.847
atomic mag. moment =  -0.26490
N of occupied +U levels =   16.322958
 --- exit write_ns ---
 --- in v_hubbard ---
Hubbard energy    0.4332
 -------

     total cpu time spent up to now is        8.4 secs

     total energy              =    -364.80892385 Ry
     estimated scf accuracy    <       0.00011980 Ry

     total magnetization       =    -0.04 Bohr mag/cell
     absolute magnetization    =     0.72 Bohr mag/cell

     iteration # 12     ecut=    20.00 Ry     beta= 0.70
     Davidson diagonalization with overlap
     ethr =  5.99E-07,  avg # of iterations =  2.0
 --- enter write_ns ---
 LDA+U parameters:
U( 1)     =  4.00000000
U( 2)     =  4.00000000
atom    1   Tr[ns(na)] (up, down, total) =   4.19050  3.97334  8.16384
   spin  1
    eigenvalues: 
  0.809  0.815  0.853  0.855  0.858
    eigenvectors:
  0.000  0.811  0.156  0.000  0.033
  0.032  0.140  0.446  0.218  0.164
  0.095  0.047  0.149  0.655  0.055
  0.655  0.000  0.062  0.095  0.187
  0.218  0.001  0.187  0.032  0.561
    occupations:
  0.823 -0.013  0.008 -0.000  0.001
 -0.013  0.848  0.001  0.005  0.006
  0.008  0.001  0.849  0.012  0.005
 -0.000  0.005  0.012  0.825 -0.018
  0.001  0.006  0.005 -0.018  0.846
   spin  2
    eigenvalues: 
  0.681  0.778  0.814  0.850  0.851
    eigenvectors:
  0.064  0.699  0.000  0.237  0.000
  0.185  0.076  0.204  0.489  0.046
  0.062  0.025  0.613  0.163  0.137
  0.172  0.050  0.137  0.028  0.613
  0.517  0.149  0.046  0.084  0.204
    occupations:
  0.789  0.035 -0.020  0.004 -0.007
  0.035  0.806  0.008 -0.020  0.048
 -0.020  0.008  0.816  0.026 -0.020
  0.004 -0.020  0.026  0.813  0.054
 -0.007  0.048 -0.020  0.054  0.750
atomic mag. moment =   0.21716
atom    2   Tr[ns(na)] (up, down, total) =   3.95183  4.20215  8.15398
   spin  1
    eigenvalues: 
  0.669  0.772  0.811  0.850  0.851
    eigenvectors:
  0.060  0.711  0.000  0.229  0.000
  0.189  0.073  0.201  0.488  0.049
  0.063  0.024  0.602  0.163  0.148
  0.172  0.048  0.148  0.030  0.602
  0.516  0.144  0.049  0.090  0.201
    occupations:
  0.783  0.037 -0.021  0.004 -0.007
  0.037  0.802  0.010 -0.021  0.052
 -0.021  0.010  0.813  0.028 -0.021
  0.004 -0.021  0.028  0.810  0.057
 -0.007  0.052 -0.021  0.057  0.743
   spin  2
    eigenvalues: 
  0.814  0.820  0.854  0.855  0.859
    eigenvectors:
  0.000  0.812  0.153  0.000  0.036
  0.030  0.141  0.474  0.220  0.135
  0.091  0.047  0.158  0.659  0.045
  0.659  0.000  0.054  0.091  0.196
  0.220  0.000  0.161  0.030  0.589
    occupations:
  0.827 -0.012  0.007  0.000 -0.000
 -0.012  0.849  0.001  0.005  0.005
  0.007  0.001  0.850  0.011  0.005
  0.000  0.005  0.011  0.829 -0.017
 -0.000  0.005  0.005 -0.017  0.848
atomic mag. moment =  -0.25032
N of occupied +U levels =   16.317825
 --- exit write_ns ---
 --- in v_hubbard ---
Hubbard energy    0.4337
 -------

     total cpu time spent up to now is        9.1 secs

     total energy              =    -364.80958070 Ry
     estimated scf accuracy    <       0.00006356 Ry

     total magnetization       =    -0.04 Bohr mag/cell
     absolute magnetization    =     0.70 Bohr mag/cell

     iteration # 13     ecut=    20.00 Ry     beta= 0.70
     Davidson diagonalization with overlap
     ethr =  3.18E-07,  avg # of iterations =  1.0
 --- enter write_ns ---
 LDA+U parameters:
U( 1)     =  4.00000000
U( 2)     =  4.00000000
atom    1   Tr[ns(na)] (up, down, total) =   4.19878  3.96330  8.16208
   spin  1
    eigenvalues: 
  0.814  0.818  0.853  0.856  0.858
    eigenvectors:
  0.000  0.794  0.153  0.000  0.053
  0.025  0.154  0.400  0.225  0.197
  0.076  0.051  0.133  0.674  0.066
  0.674  0.000  0.079  0.076  0.171
  0.225  0.001  0.236  0.025  0.513
    occupations:
  0.826 -0.013  0.007  0.000 -0.000
 -0.013  0.848  0.002  0.004  0.005
  0.007  0.002  0.850  0.010  0.004
  0.000  0.004  0.010  0.828 -0.017
 -0.000  0.005  0.004 -0.017  0.847
   spin  2
    eigenvalues: 
  0.682  0.775  0.807  0.849  0.850
    eigenvectors:
  0.068  0.707  0.000  0.225  0.000
  0.189  0.068  0.200  0.493  0.050
  0.063  0.023  0.601  0.164  0.149
  0.170  0.051  0.149  0.029  0.601
  0.510  0.152  0.050  0.088  0.200
    occupations:
  0.785  0.035 -0.020  0.004 -0.007
  0.035  0.804  0.006 -0.018  0.049
 -0.020  0.006  0.812  0.028 -0.018
  0.004 -0.018  0.028  0.811  0.052
 -0.007  0.049 -0.018  0.052  0.751
atomic mag. moment =   0.23549
atom    2   Tr[ns(na)] (up, down, total) =   3.95603  4.20095  8.15698
   spin  1
    eigenvalues: 
  0.677  0.773  0.807  0.849  0.850
    eigenvectors:
  0.058  0.716  0.000  0.226  0.000
  0.188  0.073  0.201  0.489  0.049
  0.063  0.024  0.603  0.163  0.147
  0.173  0.047  0.147  0.030  0.603
  0.518  0.140  0.049  0.091  0.201
    occupations:
  0.784  0.035 -0.020  0.003 -0.005
  0.035  0.803  0.007 -0.019  0.050
 -0.020  0.007  0.811  0.028 -0.019
  0.003 -0.019  0.028  0.810  0.054
 -0.005  0.050 -0.019  0.054  0.747
   spin  2
    eigenvalues: 
  0.814  0.820  0.853  0.856  0.858
    eigenvectors:
  0.000  0.805  0.141  0.000  0.054
  0.026  0.146  0.428  0.224  0.176
  0.077  0.049  0.143  0.673  0.059
  0.673  0.000  0.072  0.077  0.178
  0.224  0.000  0.217  0.026  0.533
    occupations:
  0.827 -0.012  0.007  0.000 -0.001
 -0.012  0.849  0.002  0.004  0.005
  0.007  0.002  0.850  0.010  0.004
  0.000  0.004  0.010  0.828 -0.017
 -0.001  0.005  0.004 -0.017  0.847
atomic mag. moment =  -0.24492
N of occupied +U levels =   16.319059
 --- exit write_ns ---
 --- in v_hubbard ---
Hubbard energy    0.4327
 -------

     total cpu time spent up to now is        9.8 secs

     total energy              =    -364.80952357 Ry
     estimated scf accuracy    <       0.00003843 Ry

     total magnetization       =    -0.01 Bohr mag/cell
     absolute magnetization    =     0.71 Bohr mag/cell

     iteration # 14     ecut=    20.00 Ry     beta= 0.70
     Davidson diagonalization with overlap
     ethr =  1.92E-07,  avg # of iterations =  1.9
 --- enter write_ns ---
 LDA+U parameters:
U( 1)     =  4.00000000
U( 2)     =  4.00000000
atom    1   Tr[ns(na)] (up, down, total) =   4.19906  3.95654  8.15560
   spin  1
    eigenvalues: 
  0.812  0.817  0.855  0.856  0.858
    eigenvectors:
  0.000  0.812  0.175  0.000  0.013
  0.032  0.138  0.513  0.218  0.098
  0.095  0.046  0.171  0.655  0.033
  0.655  0.001  0.035  0.095  0.214
  0.218  0.002  0.105  0.032  0.642
    occupations:
  0.824 -0.013  0.007 -0.001  0.001
 -0.013  0.849  0.001  0.005  0.005
  0.007  0.001  0.850  0.011  0.005
 -0.001  0.005  0.011  0.828 -0.017
  0.001  0.005  0.005 -0.017  0.848
   spin  2
    eigenvalues: 
  0.663  0.780  0.812  0.851  0.851
    eigenvectors:
  0.072  0.688  0.000  0.240  0.000
  0.190  0.073  0.206  0.487  0.044
  0.063  0.024  0.617  0.162  0.133
  0.169  0.054  0.133  0.028  0.617
  0.506  0.161  0.044  0.083  0.206
    occupations:
  0.789  0.038 -0.022  0.007 -0.012
  0.038  0.802  0.010 -0.023  0.054
 -0.022  0.010  0.813  0.028 -0.023
  0.007 -0.023  0.028  0.810  0.059
 -0.012  0.054 -0.023  0.059  0.743
atomic mag. moment =   0.24251
atom    2   Tr[ns(na)] (up, down, total) =   3.96638  4.19346  8.15984
   spin  1
    eigenvalues: 
  0.667  0.781  0.815  0.851  0.852
    eigenvectors:
  0.057  0.695  0.000  0.247  0.000
  0.186  0.084  0.209  0.480  0.041
  0.062  0.028  0.626  0.160  0.124
  0.174  0.048  0.124  0.028  0.626
  0.521  0.145  0.041  0.084  0.209
    occupations:
  0.791  0.036 -0.021  0.005 -0.009
  0.036  0.803  0.010 -0.022  0.053
 -0.021  0.010  0.815  0.027 -0.022
  0.005 -0.022  0.027  0.812  0.059
 -0.009  0.053 -0.022  0.059  0.744
   spin  2
    eigenvalues: 
  0.809  0.816  0.854  0.855  0.859
    eigenvectors:
  0.000  0.828  0.154  0.000  0.018
  0.033  0.128  0.518  0.217  0.104
  0.100  0.043  0.173  0.650  0.035
  0.650  0.000  0.039  0.100  0.211
  0.217  0.001  0.116  0.033  0.633
    occupations:
  0.823 -0.013  0.007 -0.000  0.001
 -0.013  0.849  0.000  0.006  0.005
  0.007  0.000  0.849  0.012  0.006
 -0.000  0.006  0.012  0.826 -0.018
  0.001  0.005  0.006 -0.018  0.847
atomic mag. moment =  -0.22708
N of occupied +U levels =   16.315438
 --- exit write_ns ---
 --- in v_hubbard ---
Hubbard energy    0.4324
 -------

     total cpu time spent up to now is       10.5 secs

     total energy              =    -364.80972135 Ry
     estimated scf accuracy    <       0.00001572 Ry

     total magnetization       =     0.02 Bohr mag/cell
     absolute magnetization    =     0.70 Bohr mag/cell

     iteration # 15     ecut=    20.00 Ry     beta= 0.70
     Davidson diagonalization with overlap
     ethr =  7.86E-08,  avg # of iterations =  1.2
 --- enter write_ns ---
 LDA+U parameters:
U( 1)     =  4.00000000
U( 2)     =  4.00000000
atom    1   Tr[ns(na)] (up, down, total) =   4.19694  3.95990  8.15684
   spin  1
    eigenvalues: 
  0.811  0.816  0.855  0.856  0.858
    eigenvectors:
  0.000  0.821  0.176  0.000  0.003
  0.033  0.131  0.564  0.217  0.055
  0.100  0.044  0.188  0.650  0.018
  0.650  0.001  0.018  0.100  0.231
  0.217  0.003  0.053  0.033  0.693
    occupations:
  0.823 -0.013  0.007 -0.001  0.002
 -0.013  0.849  0.000  0.006  0.005
  0.007  0.000  0.849  0.012  0.006
 -0.001  0.006  0.012  0.827 -0.018
  0.002  0.005  0.006 -0.018  0.848
   spin  2
    eigenvalues: 
  0.659  0.784  0.814  0.851  0.852
    eigenvectors:
  0.073  0.683  0.000  0.244  0.000
  0.190  0.075  0.207  0.485  0.043
  0.063  0.025  0.621  0.162  0.129
  0.168  0.054  0.129  0.027  0.621
  0.505  0.163  0.043  0.082  0.207
    occupations:
  0.791  0.038 -0.022  0.008 -0.014
  0.038  0.802  0.011 -0.024  0.056
 -0.022  0.011  0.814  0.028 -0.024
  0.008 -0.024  0.028  0.811  0.060
 -0.014  0.056 -0.024  0.060  0.742
atomic mag. moment =   0.23704
atom    2   Tr[ns(na)] (up, down, total) =   3.96460  4.19254  8.15713
   spin  1
    eigenvalues: 
  0.661  0.784  0.816  0.851  0.853
    eigenvectors:
  0.061  0.692  0.000  0.248  0.000
  0.188  0.082  0.209  0.480  0.041
  0.063  0.027  0.627  0.160  0.123
  0.172  0.050  0.123  0.028  0.627
  0.516  0.149  0.041  0.084  0.209
    occupations:
  0.793  0.036 -0.021  0.007 -0.012
  0.036  0.803  0.011 -0.024  0.055
 -0.021  0.011  0.815  0.028 -0.024
  0.007 -0.024  0.028  0.812  0.061
 -0.012  0.055 -0.024  0.061  0.742
   spin  2
    eigenvalues: 
  0.809  0.815  0.855  0.855  0.858
    eigenvectors:
  0.000  0.836  0.158  0.000  0.006
  0.035  0.121  0.569  0.215  0.060
  0.105  0.040  0.190  0.645  0.020
  0.645  0.001  0.021  0.105  0.229
  0.215  0.002  0.063  0.035  0.686
    occupations:
  0.822 -0.013  0.007 -0.001  0.001
 -0.013  0.849 -0.000  0.006  0.005
  0.007 -0.000  0.849  0.012  0.006
 -0.001  0.006  0.012  0.826 -0.018
  0.001  0.005  0.006 -0.018  0.847
atomic mag. moment =  -0.22794
N of occupied +U levels =   16.313969
 --- exit write_ns ---
 --- in v_hubbard ---
Hubbard energy    0.4323
 -------

     total cpu time spent up to now is       11.2 secs

     total energy              =    -364.80974592 Ry
     estimated scf accuracy    <       0.00000412 Ry

     total magnetization       =     0.01 Bohr mag/cell
     absolute magnetization    =     0.70 Bohr mag/cell

     iteration # 16     ecut=    20.00 Ry     beta= 0.70
     Davidson diagonalization with overlap
     ethr =  2.06E-08,  avg # of iterations =  1.9
 --- enter write_ns ---
 LDA+U parameters:
U( 1)     =  4.00000000
U( 2)     =  4.00000000
atom    1   Tr[ns(na)] (up, down, total) =   4.19795  3.95663  8.15458
   spin  1
    eigenvalues: 
  0.812  0.816  0.856  0.856  0.858
    eigenvectors:
  0.000  0.823  0.176  0.000  0.001
  0.033  0.129  0.584  0.217  0.037
  0.099  0.043  0.195  0.651  0.012
  0.651  0.001  0.011  0.099  0.237
  0.217  0.004  0.034  0.033  0.712
    occupations:
  0.823 -0.013  0.007 -0.001  0.002
 -0.013  0.849  0.000  0.006  0.005
  0.007  0.000  0.850  0.012  0.006
 -0.001  0.006  0.012  0.828 -0.018
  0.002  0.005  0.006 -0.018  0.848
   spin  2
    eigenvalues: 
  0.656  0.785  0.812  0.851  0.852
    eigenvectors:
  0.075  0.682  0.000  0.243  0.000
  0.192  0.073  0.207  0.485  0.043
  0.064  0.024  0.621  0.162  0.129
  0.167  0.055  0.129  0.028  0.621
  0.502  0.165  0.043  0.083  0.207
    occupations:
  0.791  0.038 -0.022  0.009 -0.016
  0.038  0.801  0.011 -0.024  0.057
 -0.022  0.011  0.813  0.029 -0.024
  0.009 -0.024  0.029  0.811  0.060
 -0.016  0.057 -0.024  0.060  0.741
atomic mag. moment =   0.24131
atom    2   Tr[ns(na)] (up, down, total) =   3.96752  4.19176  8.15927
   spin  1
    eigenvalues: 
  0.660  0.788  0.815  0.851  0.853
    eigenvectors:
  0.063  0.688  0.000  0.249  0.000
  0.190  0.081  0.209  0.480  0.041
  0.063  0.027  0.628  0.160  0.122
  0.171  0.051  0.122  0.028  0.628
  0.513  0.153  0.041  0.084  0.209
    occupations:
  0.795  0.036 -0.021  0.008 -0.014
  0.036  0.802  0.011 -0.024  0.056
 -0.021  0.011  0.815  0.028 -0.024
  0.008 -0.024  0.028  0.812  0.061
 -0.014  0.056 -0.024  0.061  0.742
   spin  2
    eigenvalues: 
  0.809  0.815  0.855  0.855  0.858
    eigenvectors:
  0.000  0.841  0.157  0.000  0.003
  0.035  0.117  0.584  0.215  0.048
  0.104  0.039  0.195  0.646  0.016
  0.646  0.001  0.016  0.104  0.233
  0.215  0.002  0.048  0.035  0.700
    occupations:
  0.821 -0.013  0.007 -0.001  0.002
 -0.013  0.849 -0.000  0.006  0.005
  0.007 -0.000  0.849  0.012  0.006
 -0.001  0.006  0.012  0.826 -0.019
  0.002  0.005  0.006 -0.019  0.847
atomic mag. moment =  -0.22424
N of occupied +U levels =   16.313851
 --- exit write_ns ---
 --- in v_hubbard ---
Hubbard energy    0.4317
 -------

     total cpu time spent up to now is       11.8 secs

     total energy              =    -364.80972961 Ry
     estimated scf accuracy    <       0.00001166 Ry

     total magnetization       =     0.02 Bohr mag/cell
     absolute magnetization    =     0.70 Bohr mag/cell

     iteration # 17     ecut=    20.00 Ry     beta= 0.70
     Davidson diagonalization with overlap
     ethr =  2.06E-08,  avg # of iterations =  2.0
 --- enter write_ns ---
 LDA+U parameters:
U( 1)     =  4.00000000
U( 2)     =  4.00000000
atom    1   Tr[ns(na)] (up, down, total) =   4.19430  3.96234  8.15664
   spin  1
    eigenvalues: 
  0.810  0.815  0.856  0.856  0.859
    eigenvectors:
  0.000  0.832  0.167  0.000  0.001
  0.036  0.121  0.614  0.214  0.015
  0.108  0.040  0.205  0.642  0.005
  0.642  0.002  0.003  0.108  0.245
  0.214  0.005  0.010  0.036  0.735
    occupations:
  0.822 -0.013  0.007 -0.002  0.003
 -0.013  0.849 -0.000  0.006  0.005
  0.007 -0.000  0.849  0.012  0.006
 -0.002  0.006  0.012  0.827 -0.018
  0.003  0.005  0.006 -0.018  0.848
   spin  2
    eigenvalues: 
  0.654  0.788  0.816  0.852  0.853
    eigenvectors:
  0.075  0.676  0.000  0.249  0.000
  0.191  0.076  0.209  0.482  0.041
  0.064  0.025  0.627  0.161  0.123
  0.168  0.055  0.123  0.027  0.627
  0.503  0.166  0.041  0.081  0.209
    occupations:
  0.794  0.038 -0.022  0.010 -0.017
  0.038  0.802  0.012 -0.025  0.058
 -0.022  0.012  0.815  0.028 -0.025
  0.010 -0.025  0.028  0.811  0.061
 -0.017  0.058 -0.025  0.061  0.740
atomic mag. moment =   0.23196
atom    2   Tr[ns(na)] (up, down, total) =   3.96455  4.19137  8.15591
   spin  1
    eigenvalues: 
  0.653  0.789  0.817  0.852  0.854
    eigenvectors:
  0.066  0.682  0.000  0.252  0.000
  0.191  0.081  0.210  0.478  0.040
  0.064  0.027  0.631  0.159  0.119
  0.170  0.052  0.119  0.028  0.631
  0.510  0.157  0.040  0.083  0.210
    occupations:
  0.796  0.037 -0.021  0.009 -0.016
  0.037  0.802  0.012 -0.026  0.058
 -0.021  0.012  0.816  0.028 -0.026
  0.009 -0.026  0.028  0.812  0.062
 -0.016  0.058 -0.026  0.062  0.740
   spin  2
    eigenvalues: 
  0.808  0.814  0.855  0.855  0.858
    eigenvectors:
  0.000  0.846  0.000  0.154  0.000
  0.037  0.112  0.213  0.621  0.017
  0.111  0.037  0.639  0.207  0.006
  0.639  0.001  0.111  0.005  0.244
  0.213  0.003  0.037  0.014  0.733
    occupations:
  0.821 -0.013  0.007 -0.001  0.002
 -0.013  0.849 -0.000  0.007  0.005
  0.007 -0.000  0.848  0.013  0.007
 -0.001  0.007  0.013  0.826 -0.019
  0.002  0.005  0.007 -0.019  0.847
atomic mag. moment =  -0.22682
N of occupied +U levels =   16.312559
 --- exit write_ns ---
 --- in v_hubbard ---
Hubbard energy    0.4319
 -------

     total cpu time spent up to now is       12.6 secs

     total energy              =    -364.80975650 Ry
     estimated scf accuracy    <       0.00000408 Ry

     total magnetization       =     0.01 Bohr mag/cell
     absolute magnetization    =     0.70 Bohr mag/cell

     iteration # 18     ecut=    20.00 Ry     beta= 0.70
     Davidson diagonalization with overlap
     ethr =  2.04E-08,  avg # of iterations =  1.0
 --- enter write_ns ---
 LDA+U parameters:
U( 1)     =  4.00000000
U( 2)     =  4.00000000
atom    1   Tr[ns(na)] (up, down, total) =   4.19429  3.96273  8.15702
   spin  1
    eigenvalues: 
  0.810  0.815  0.856  0.856  0.858
    eigenvectors:
  0.000  0.832  0.168  0.000  0.000
  0.035  0.121  0.611  0.215  0.018
  0.105  0.040  0.204  0.645  0.006
  0.645  0.002  0.004  0.105  0.244
  0.215  0.005  0.013  0.035  0.732
    occupations:
  0.822 -0.013  0.007 -0.002  0.003
 -0.013  0.849  0.000  0.006  0.005
  0.007  0.000  0.849  0.012  0.006
 -0.002  0.006  0.012  0.827 -0.018
  0.003  0.005  0.006 -0.018  0.848
   spin  2
    eigenvalues: 
  0.655  0.789  0.815  0.852  0.853
    eigenvectors:
  0.076  0.679  0.000  0.246  0.000
  0.192  0.074  0.208  0.484  0.042
  0.064  0.025  0.625  0.161  0.125
  0.167  0.056  0.125  0.027  0.625
  0.501  0.167  0.042  0.082  0.208
    occupations:
  0.794  0.038 -0.022  0.010 -0.017
  0.038  0.802  0.011 -0.025  0.058
 -0.022  0.011  0.815  0.029 -0.025
  0.010 -0.025  0.029  0.811  0.061
 -0.017  0.058 -0.025  0.061  0.741
atomic mag. moment =   0.23156
atom    2   Tr[ns(na)] (up, down, total) =   3.96479  4.19121  8.15599
   spin  1
    eigenvalues: 
  0.654  0.790  0.816  0.852  0.853
    eigenvectors:
  0.068  0.683  0.000  0.249  0.000
  0.192  0.079  0.210  0.479  0.040
  0.064  0.026  0.629  0.160  0.121
  0.169  0.053  0.121  0.028  0.629
  0.507  0.159  0.040  0.084  0.210
    occupations:
  0.796  0.037 -0.021  0.009 -0.016
  0.037  0.801  0.012 -0.026  0.058
 -0.021  0.012  0.815  0.029 -0.026
  0.009 -0.026  0.029  0.812  0.062
 -0.016  0.058 -0.026  0.062  0.741
   spin  2
    eigenvalues: 
  0.809  0.814  0.855  0.855  0.858
    eigenvectors:
  0.000  0.846  0.154  0.000  0.000
  0.036  0.112  0.620  0.214  0.018
  0.109  0.037  0.207  0.641  0.006
  0.641  0.001  0.005  0.109  0.244
  0.214  0.004  0.015  0.036  0.732
    occupations:
  0.820 -0.013  0.007 -0.001  0.002
 -0.013  0.849 -0.000  0.006  0.005
  0.007 -0.000  0.849  0.013  0.006
 -0.001  0.006  0.013  0.826 -0.018
  0.002  0.005  0.006 -0.018  0.847
atomic mag. moment =  -0.22642
N of occupied +U levels =   16.313015
 --- exit write_ns ---
 --- in v_hubbard ---
Hubbard energy    0.4319
 -------

     total cpu time spent up to now is       13.2 secs

     total energy              =    -364.80975966 Ry
     estimated scf accuracy    <       0.00000204 Ry

     total magnetization       =     0.01 Bohr mag/cell
     absolute magnetization    =     0.70 Bohr mag/cell

     iteration # 19     ecut=    20.00 Ry     beta= 0.70
     Davidson diagonalization with overlap
     ethr =  1.02E-08,  avg # of iterations =  1.0
 --- enter write_ns ---
 LDA+U parameters:
U( 1)     =  4.00000000
U( 2)     =  4.00000000
atom    1   Tr[ns(na)] (up, down, total) =   4.19444  3.96246  8.15690
   spin  1
    eigenvalues: 
  0.810  0.815  0.856  0.856  0.858
    eigenvectors:
  0.000  0.833  0.167  0.000  0.001
  0.035  0.121  0.613  0.215  0.017
  0.105  0.040  0.204  0.645  0.006
  0.645  0.002  0.004  0.105  0.244
  0.215  0.005  0.012  0.035  0.733
    occupations:
  0.822 -0.013  0.007 -0.002  0.003
 -0.013  0.849  0.000  0.006  0.005
  0.007  0.000  0.849  0.012  0.006
 -0.002  0.006  0.012  0.827 -0.018
  0.003  0.005  0.006 -0.018  0.848
   spin  2
    eigenvalues: 
  0.655  0.789  0.814  0.852  0.853
    eigenvectors:
  0.076  0.679  0.000  0.245  0.000
  0.193  0.073  0.208  0.484  0.042
  0.064  0.024  0.624  0.161  0.126
  0.167  0.056  0.126  0.027  0.624
  0.500  0.168  0.042  0.082  0.208
    occupations:
  0.794  0.038 -0.022  0.010 -0.017
  0.038  0.801  0.011 -0.025  0.058
 -0.022  0.011  0.814  0.029 -0.025
  0.010 -0.025  0.029  0.811  0.061
 -0.017  0.058 -0.025  0.061  0.741
atomic mag. moment =   0.23198
atom    2   Tr[ns(na)] (up, down, total) =   3.96570  4.19075  8.15645
   spin  1
    eigenvalues: 
  0.654  0.791  0.816  0.852  0.853
    eigenvectors:
  0.069  0.682  0.000  0.249  0.000
  0.193  0.078  0.210  0.479  0.040
  0.064  0.026  0.629  0.160  0.121
  0.168  0.054  0.121  0.028  0.629
  0.505  0.161  0.040  0.084  0.210
    occupations:
  0.796  0.037 -0.021  0.010 -0.017
  0.037  0.801  0.012 -0.026  0.058
 -0.021  0.012  0.815  0.029 -0.026
  0.010 -0.026  0.029  0.812  0.061
 -0.017  0.058 -0.026  0.061  0.741
   spin  2
    eigenvalues: 
  0.808  0.814  0.855  0.855  0.858
    eigenvectors:
  0.000  0.846  0.154  0.000  0.000
  0.036  0.112  0.620  0.214  0.018
  0.109  0.037  0.207  0.641  0.006
  0.641  0.001  0.005  0.109  0.244
  0.214  0.004  0.015  0.036  0.732
    occupations:
  0.820 -0.013  0.007 -0.001  0.002
 -0.013  0.849 -0.000  0.006  0.005
  0.007 -0.000  0.849  0.013  0.006
 -0.001  0.006  0.013  0.826 -0.018
  0.002  0.005  0.006 -0.018  0.847
atomic mag. moment =  -0.22504
N of occupied +U levels =   16.313354
 --- exit write_ns ---
 --- in v_hubbard ---
Hubbard energy    0.4319
 -------

     Magnetic moment per site  (integrated on atomic sphere of radius R)
     atom   1 (R=0.206)  charge=  8.8281  magn=  0.3002
     atom   2 (R=0.206)  charge=  8.8269  magn= -0.2911

     total cpu time spent up to now is       13.9 secs

     End of self-consistent calculation

 ------ SPIN UP ------------


          k = 0.0833 0.1443 0.1021 (   225 PWs)   bands (ev):

     4.7601   7.5945   9.7937   9.9269  10.0929  10.2901  10.4896  11.0567
    11.1945  11.2996  12.1457  14.2138  19.6983  34.7585  37.2127  37.3528
    37.3727  39.4492

     occupation numbers 
     1.0000   1.0000   1.0000   1.0000   1.0000   1.0000   1.0000   1.0000
     1.0000   1.0000   1.0000   0.0000   0.0000   0.0000   0.0000   0.0000
     0.0000   0.0000

          k = 0.0833 0.1443 0.5103 (   225 PWs)   bands (ev):

     6.1929   8.2342   8.9708   9.6441   9.9624  10.2506  10.6217  10.7597
    11.2909  11.7374  12.1153  15.8703  21.5844  30.1901  30.8172  31.0570
    36.1305  38.6492

     occupation numbers 
     1.0000   1.0000   1.0000   1.0000   1.0000   1.0000   1.0000   1.0000
     1.0000   1.0000   1.0000   0.0000   0.0000   0.0000   0.0000   0.0000
     0.0000   0.0000

          k = 0.0833 0.1443 0.9186 (   216 PWs)   bands (ev):

[...]
    11.1014  11.6556  11.8719  15.3406  22.7147  28.4501  32.6392  33.2656
    34.4563  37.8989

     occupation numbers 
     1.0000   1.0000   1.0000   1.0000   1.0000   1.0000   1.0000   1.0000
     1.0000   1.0000   1.0000   0.0000   0.0000   0.0000   0.0000   0.0000
     0.0000   0.0000

          k = 0.4167-0.0481 0.7825 (   218 PWs)   bands (ev):

     7.8939   8.3904   8.7389   9.3856   9.7745  10.3366  10.8084  11.2590
    12.1246  12.3137  13.2010  19.8915  20.6191  24.5014  26.0097  29.8313
    31.4430  34.7110

     occupation numbers 
     1.0000   1.0000   1.0000   1.0000   1.0000   1.0000   1.0000   1.0000
     1.0000   0.9950   0.0000   0.0000   0.0000   0.0000   0.0000   0.0000
     0.0000   0.0000

          k = 0.4167-0.0481-1.2588 (   219 PWs)   bands (ev):

     7.7442   8.2251   8.3341   9.3823  10.3553  10.4823  11.1282  11.8156
    12.3239  12.4167  15.3137  16.3444  19.9303  26.4708  26.9068  28.3983
    31.3088  32.4724

     occupation numbers 
     1.0000   1.0000   1.0000   1.0000   1.0000   1.0000   1.0000   1.0000
     0.9932   0.9336   0.0000   0.0000   0.0000   0.0000   0.0000   0.0000
     0.0000   0.0000

          k = 0.4167-0.0481-0.8505 (   220 PWs)   bands (ev):

     7.5570   8.0995   8.4526   9.6510   9.9319  10.7208  10.8622  11.6689
    11.7891  12.2579  12.6263  13.7279  24.7698  29.3890  30.3243  30.8029
    31.3427  35.2545

     occupation numbers 
     1.0000   1.0000   1.0000   1.0000   1.0000   1.0000   1.0000   1.0000
     1.0000   0.9992   0.2493   0.0000   0.0000   0.0000   0.0000   0.0000
     0.0000   0.0000

          k = 0.4167-0.0481-0.4423 (   223 PWs)   bands (ev):

     6.6292   7.5390   9.0102   9.6999  10.2928  10.4235  10.6013  10.7964
    11.0742  11.5297  11.9659  12.6453  27.0674  31.1065  32.5202  33.0239
    37.2396  39.1728

     occupation numbers 
     1.0000   1.0000   1.0000   1.0000   1.0000   1.0000   1.0000   1.0000
     1.0000   1.0000   1.0000   0.1910   0.0000   0.0000   0.0000   0.0000
     0.0000   0.0000

          k = 0.4167 0.3368-0.1701 (   226 PWs)   bands (ev):

     6.3511   8.3925   9.0997   9.4658   9.7033  10.3873  10.6593  10.8332
    11.0828  11.6526  11.9538  15.3326  22.7121  28.4518  32.6423  33.2632
    34.4549  37.8922

     occupation numbers 
     1.0000   1.0000   1.0000   1.0000   1.0000   1.0000   1.0000   1.0000
     1.0000   1.0000   1.0000   0.0000   0.0000   0.0000   0.0000   0.0000
     0.0000   0.0000

          k = 0.4167 0.3368 0.2381 (   221 PWs)   bands (ev):

     6.4494   8.2906   8.8560   9.9571  10.0187  10.1698  10.5054  11.0083
    11.6768  11.7445  12.2788  17.0333  20.9103  27.9371  29.4465  32.5803
    36.1967  37.7508

     occupation numbers 
     1.0000   1.0000   1.0000   1.0000   1.0000   1.0000   1.0000   1.0000
     1.0000   1.0000   0.9983   0.0000   0.0000   0.0000   0.0000   0.0000
     0.0000   0.0000

          k = 0.4167 0.3368 0.6464 (   219 PWs)   bands (ev):

     7.9251   8.3526   9.0048   9.4884   9.5997   9.9625  10.9616  11.0219
    11.4985  12.4300  13.2804  20.3564  21.1316  24.6760  26.8930  27.4647
    29.4519  37.8083

     occupation numbers 
     1.0000   1.0000   1.0000   1.0000   1.0000   1.0000   1.0000   1.0000
     1.0000   0.9137   0.0000   0.0000   0.0000   0.0000   0.0000   0.0000
     0.0000   0.0000

          k = 0.4167 0.3368-1.3948 (   216 PWs)   bands (ev):

     8.1386   8.6103   8.8005   9.2218   9.9923  10.2127  10.8312  11.3851
    11.9313  12.8097  16.3167  19.8993  21.6591  21.7893  24.2758  27.6488
    27.7101  34.0171

     occupation numbers 
     1.0000   1.0000   1.0000   1.0000   1.0000   1.0000   1.0000   1.0000
     1.0000   0.0049   0.0000   0.0000   0.0000   0.0000   0.0000   0.0000
     0.0000   0.0000

          k = 0.4167 0.3368-0.9866 (   217 PWs)   bands (ev):

     8.0257   8.2931   8.8636   9.0628  10.0064  10.3481  11.1120  11.4082
    12.0600  12.8855  15.2929  16.6807  22.1749  22.7748  27.6518  29.8125
    31.1387  31.8118

     occupation numbers 
     1.0000   1.0000   1.0000   1.0000   1.0000   1.0000   1.0000   1.0000
     1.0000   0.0004   0.0000   0.0000   0.0000   0.0000   0.0000   0.0000
     0.0000   0.0000

          k = 0.4167 0.3368-0.5784 (   225 PWs)   bands (ev):

     7.3776   8.6725   8.7297   9.2851   9.4667  10.2061  10.8020  11.3393
    11.6945  11.7637  12.3306  15.3567  24.2550  26.6194  30.3633  31.9354
    33.1358  33.7206

     occupation numbers 
     1.0000   1.0000   1.0000   1.0000   1.0000   1.0000   1.0000   1.0000
     1.0000   1.0000   0.9918   0.0000   0.0000   0.0000   0.0000   0.0000
     0.0000   0.0000

          k = 0.4167 0.7217-0.3062 (   218 PWs)   bands (ev):

     7.9064   8.3751   8.7517   9.3355   9.7501  10.3341  10.8127  11.2700
    12.1362  12.2954  13.2479  19.8801  20.6169  24.5065  26.0076  29.8322
    31.4464  34.7061

     occupation numbers 
     1.0000   1.0000   1.0000   1.0000   1.0000   1.0000   1.0000   1.0000
     1.0000   0.9971   0.0000   0.0000   0.0000   0.0000   0.0000   0.0000
     0.0000   0.0000

          k = 0.4167 0.7217 0.1021 (   219 PWs)   bands (ev):

     7.9336   8.3431   9.0094   9.4610   9.6132   9.9773  10.9520  11.0374
    11.4671  12.3912  13.3346  20.3537  21.1294  24.6781  26.8936  27.4666
    29.4501  37.8019

     occupation numbers 
     1.0000   1.0000   1.0000   1.0000   1.0000   1.0000   1.0000   1.0000
     1.0000   0.9615   0.0000   0.0000   0.0000   0.0000   0.0000   0.0000
     0.0000   0.0000

          k = 0.4167 0.7217 0.5103 (   219 PWs)   bands (ev):

     7.9347   8.4347   8.7624   9.0388   9.6618  10.7670  10.9191  11.2532
    12.1165  12.6012  13.6167  18.5542  20.5415  24.9144  25.9647  31.7542
    32.1454  32.8377

     occupation numbers 
     1.0000   1.0000   1.0000   1.0000   1.0000   1.0000   1.0000   1.0000
     1.0000   0.3390   0.0000   0.0000   0.0000   0.0000   0.0000   0.0000
     0.0000   0.0000

          k = 0.4167 0.7217-1.5309 (   217 PWs)   bands (ev):

     8.3434   8.7315   8.7903   9.0509   9.4760  10.0806  10.9054  11.5537
    12.2171  12.5533  16.6190  17.0401  21.9599  24.0008  26.3353  27.8080
    27.8325  30.8028

     occupation numbers 
     1.0000   1.0000   1.0000   1.0000   1.0000   1.0000   1.0000   1.0000
     0.9998   0.5327   0.0000   0.0000   0.0000   0.0000   0.0000   0.0000
     0.0000   0.0000

          k = 0.4167 0.7217-1.1227 (   215 PWs)   bands (ev):

     8.4378   8.8298   9.1485   9.3237   9.5995   9.7761  10.9191  11.1322
    11.8584  12.7330  16.3326  19.4766  22.2877  23.1703  25.2823  25.9521
    26.3189  33.8608

     occupation numbers 
     1.0000   1.0000   1.0000   1.0000   1.0000   1.0000   1.0000   1.0000
     1.0000   0.0371   0.0000   0.0000   0.0000   0.0000   0.0000   0.0000
     0.0000   0.0000

          k = 0.4167 0.7217-0.7144 (   217 PWs)   bands (ev):

     8.1400   8.5282   8.8029   8.9238   9.5901  10.4891  11.1076  11.4969
    12.3021  12.5561  15.0580  17.3307  21.0407  24.2984  28.0871  29.4202
    30.0732  30.4031

     occupation numbers 
     1.0000   1.0000   1.0000   1.0000   1.0000   1.0000   1.0000   1.0000
     0.9965   0.5213   0.0000   0.0000   0.0000   0.0000   0.0000   0.0000
     0.0000   0.0000

          k = 0.4167-1.2028 0.3742 (   219 PWs)   bands (ev):

     7.7482   8.1689   8.3830   9.3404  10.3214  10.4906  11.1316  11.8136
    12.3523  12.4526  15.3073  16.3343  19.9295  26.4680  26.9079  28.4006
    31.3175  32.4631

     occupation numbers 
     1.0000   1.0000   1.0000   1.0000   1.0000   1.0000   1.0000   1.0000
     0.9851   0.8706   0.0000   0.0000   0.0000   0.0000   0.0000   0.0000
     0.0000   0.0000

          k = 0.4167-1.2028 0.7825 (   216 PWs)   bands (ev):

     8.1190   8.5782   8.8546   9.2280   9.9728  10.2094  10.7956  11.4157
    11.9405  12.8094  16.3149  19.8997  21.6607  21.7899  24.2743  27.6489
    27.7108  34.0175

     occupation numbers 
     1.0000   1.0000   1.0000   1.0000   1.0000   1.0000   1.0000   1.0000
     1.0000   0.0049   0.0000   0.0000   0.0000   0.0000   0.0000   0.0000
     0.0000   0.0000

          k = 0.4167-1.2028 1.1907 (   217 PWs)   bands (ev):

     8.3479   8.7122   8.7854   9.0403   9.5220  10.0690  10.9267  11.5153
    12.2235  12.5613  16.6190  17.0380  21.9588  24.0034  26.3372  27.8049
    27.8299  30.8062

     occupation numbers 
     1.0000   1.0000   1.0000   1.0000   1.0000   1.0000   1.0000   1.0000
     0.9998   0.5000   0.0000   0.0000   0.0000   0.0000   0.0000   0.0000
     0.0000   0.0000

          k = 0.4167-1.2028-0.8505 (   219 PWs)   bands (ev):

     7.6828   7.8982   8.4142   9.7221  10.1810  10.2863  11.2381  11.6321
    12.2007  12.6133  13.3244  18.5562  22.6248  23.0843  23.9433  30.3639
    34.7310  35.1308

     occupation numbers 
     1.0000   1.0000   1.0000   1.0000   1.0000   1.0000   1.0000   1.0000
     0.9999   0.2943   0.0000   0.0000   0.0000   0.0000   0.0000   0.0000
     0.0000   0.0000

          k = 0.4167-1.2028-0.4423 (   215 PWs)   bands (ev):

     7.7920   8.2388   8.8624   9.6448   9.8929  10.2128  10.8492  11.5886
    11.6412  12.4658  13.3113  18.4199  23.5247  25.5720  25.8000  26.2106
    31.2751  37.7984

     occupation numbers 
     1.0000   1.0000   1.0000   1.0000   1.0000   1.0000   1.0000   1.0000
     1.0000   0.8393   0.0000   0.0000   0.0000   0.0000   0.0000   0.0000
     0.0000   0.0000

          k = 0.4167-1.2028-0.0340 (   221 PWs)   bands (ev):

     7.8245   8.5591   8.7348   8.9653   9.6741  10.3737  10.8754  11.5422
    12.1218  12.2133  13.3180  17.5044  21.0477  27.0584  27.9387  29.7549
    31.5218  31.5588

     occupation numbers 
     1.0000   1.0000   1.0000   1.0000   1.0000   1.0000   1.0000   1.0000
     1.0000   0.9999   0.0000   0.0000   0.0000   0.0000   0.0000   0.0000
     0.0000   0.0000

          k = 0.4167-0.8179 0.2381 (   220 PWs)   bands (ev):

     7.5503   8.0822   8.4969   9.6221   9.8641  10.7351  10.8843  11.6686
    11.8086  12.2638  12.6370  13.7227  24.7654  29.3920  30.3266  30.7918
    31.3519  35.2517

     occupation numbers 
     1.0000   1.0000   1.0000   1.0000   1.0000   1.0000   1.0000   1.0000
     1.0000   0.9990   0.2155   0.0000   0.0000   0.0000   0.0000   0.0000
     0.0000   0.0000

          k = 0.4167-0.8179 0.6464 (   217 PWs)   bands (ev):

     8.0180   8.2931   8.8873   9.0400   9.9906  10.4086  11.0658  11.4200
    12.0496  12.8898  15.2885  16.6870  22.1775  22.7721  27.6498  29.8139
    31.1380  31.8142

     occupation numbers 
     1.0000   1.0000   1.0000   1.0000   1.0000   1.0000   1.0000   1.0000
     1.0000   0.0003   0.0000   0.0000   0.0000   0.0000   0.0000   0.0000
     0.0000   0.0000

          k = 0.4167-0.8179 1.0546 (   215 PWs)   bands (ev):

     8.4475   8.8257   9.1097   9.3101   9.6706   9.7873  10.9472  11.1047
    11.8185  12.7442  16.3340  19.4775  22.2875  23.1697  25.2835  25.9525
    26.3170  33.8602

     occupation numbers 
     1.0000   1.0000   1.0000   1.0000   1.0000   1.0000   1.0000   1.0000
     1.0000   0.0286   0.0000   0.0000   0.0000   0.0000   0.0000   0.0000
     0.0000   0.0000

          k = 0.4167-0.8179-0.9866 (   215 PWs)   bands (ev):

     7.7877   8.2453   8.8621   9.6526   9.8613  10.2497  10.8458  11.6074
    11.6374  12.5064  13.2496  18.4237  23.5306  25.5605  25.8023  26.2130
    31.2760  37.8067

     occupation numbers 
     1.0000   1.0000   1.0000   1.0000   1.0000   1.0000   1.0000   1.0000
     1.0000   0.7159   0.0000   0.0000   0.0000   0.0000   0.0000   0.0000
     0.0000   0.0000

          k = 0.4167-0.8179-0.5784 (   220 PWs)   bands (ev):

     6.7827   8.0623   8.7645   9.9163  10.2485  10.2835  10.5056  11.0919
    11.7039  11.9958  12.3164  14.7351  24.1153  28.0331  29.4629  31.8691
    36.1416  36.7385

     occupation numbers 
     1.0000   1.0000   1.0000   1.0000   1.0000   1.0000   1.0000   1.0000
     1.0000   1.0000   0.9945   0.0000   0.0000   0.0000   0.0000   0.0000
     0.0000   0.0000

          k = 0.4167-0.8179-0.1701 (   221 PWs)   bands (ev):

     6.9701   8.2539   8.8604   9.4791   9.8449  10.4991  10.8988  11.0558
    11.3988  11.6705  12.0066  13.7434  26.4153  28.4408  31.5019  33.1770
    35.1795  36.2715

     occupation numbers 
     1.0000   1.0000   1.0000   1.0000   1.0000   1.0000   1.0000   1.0000
     1.0000   1.0000   1.0000   0.0000   0.0000   0.0000   0.0000   0.0000
     0.0000   0.0000

          k = 0.4167-0.4330 0.1021 (   223 PWs)   bands (ev):

     6.6304   7.5373   8.9954   9.7214  10.3292  10.4045  10.5687  10.8045
    11.0870  11.5086  11.9662  12.6536  27.0677  31.1055  32.5202  33.0259
    37.2478  39.1614

     occupation numbers 
     1.0000   1.0000   1.0000   1.0000   1.0000   1.0000   1.0000   1.0000
     1.0000   1.0000   1.0000   0.1684   0.0000   0.0000   0.0000   0.0000
     0.0000   0.0000

          k = 0.4167-0.4330 0.5103 (   225 PWs)   bands (ev):

     7.3822   8.6061   8.7363   9.3319   9.5313  10.2344  10.7997  11.3000
    11.6347  11.7855  12.3272  15.3632  24.2627  26.6141  30.3621  31.9360
    33.1371  33.7239

     occupation numbers 
     1.0000   1.0000   1.0000   1.0000   1.0000   1.0000   1.0000   1.0000
     1.0000   1.0000   0.9925   0.0000   0.0000   0.0000   0.0000   0.0000
     0.0000   0.0000

          k = 0.4167-0.4330 0.9186 (   217 PWs)   bands (ev):

     8.0813   8.6016   8.8350   8.9325   9.5984  10.4978  11.0964  11.4955
    12.3461  12.4541  15.0669  17.3428  21.0402  24.3003  28.0833  29.4205
    30.0704  30.4064

     occupation numbers 
     1.0000   1.0000   1.0000   1.0000   1.0000   1.0000   1.0000   1.0000
     0.9873   0.8673   0.0000   0.0000   0.0000   0.0000   0.0000   0.0000
     0.0000   0.0000

          k = 0.4167-0.4330-1.1227 (   221 PWs)   bands (ev):

     7.8201   8.5014   8.7928   9.0264   9.6756  10.3855  10.8543  11.5457
    12.1313  12.1954  13.2847  17.5139  21.0511  27.0559  27.9401  29.7496
    31.5215  31.5659

     occupation numbers 
     1.0000   1.0000   1.0000   1.0000   1.0000   1.0000   1.0000   1.0000
     1.0000   0.9999   0.0000   0.0000   0.0000   0.0000   0.0000   0.0000
     0.0000   0.0000

          k = 0.4167-0.4330-0.7144 (   221 PWs)   bands (ev):

     6.9709   8.2392   8.8685   9.4500   9.9246  10.5108  10.9149  11.0920
    11.3948  11.5801  11.9923  13.7526  26.4191  28.4382  31.4998  33.1799
    35.1822  36.2734

     occupation numbers 
     1.0000   1.0000   1.0000   1.0000   1.0000   1.0000   1.0000   1.0000
     1.0000   1.0000   1.0000   0.0000   0.0000   0.0000   0.0000   0.0000
     0.0000   0.0000

          k = 0.4167-0.4330-0.3062 (   215 PWs)   bands (ev):

     6.5947   6.9784   9.4159  10.0432  10.2477  10.5646  10.7084  10.7990
    11.3914  11.8096  11.9125  12.1033  28.1878  29.5952  34.9007  36.7557
    36.9613  40.1011

     occupation numbers 
     1.0000   1.0000   1.0000   1.0000   1.0000   1.0000   1.0000   1.0000
     1.0000   1.0000   1.0000   1.0000   0.0000   0.0000   0.0000   0.0000
     0.0000   0.0000

     the Fermi energy is    12.5612 ev

!    total energy              =    -364.80976032 Ry

     total all-electron energy =     -6076.608446 Ry
     estimated scf accuracy    <       0.00000069 Ry
     smearing contrib. (-TS)   =      -0.00218228 Ry
     internal energy E=F+TS    =    -364.80757804 Ry

     The total energy is F=E-TS. E is the sum of the following terms:
     one-electron contribution =     -17.93385948 Ry
     hartree contribution      =      38.67057668 Ry
     xc contribution           =     -81.86880912 Ry
     ewald contribution        =    -138.41116584 Ry
     Hubbard energy            =       0.43193675 Ry
     one-center paw contrib.   =    -165.69625703 Ry
      -> PAW hartree energy AE =     104.19179053 Ry
      -> PAW hartree energy PS =    -103.78486497 Ry
      -> PAW xc energy AE      =    -126.35243258 Ry
      -> PAW xc energy PS      =      43.09737630 Ry
      -> total E_H with PAW    =      39.07750224 Ry
      -> total E_XC with PAW   =    -165.12386540 Ry

     total magnetization       =     0.01 Bohr mag/cell
     absolute magnetization    =     0.70 Bohr mag/cell

     convergence has been achieved in  19 iterations

     Writing output data file /home/ponet/.julia/environments/DFControlDEV/Demo/Ni/outputs/Ni.save/

     init_run     :      0.76s CPU      0.78s WALL (       1 calls)
     electrons    :     12.31s CPU     12.87s WALL (       1 calls)

     Called by init_run:
     wfcinit      :      0.17s CPU      0.17s WALL (       1 calls)
     wfcinit:atom :      0.00s CPU      0.00s WALL (      54 calls)
     wfcinit:wfcr :      0.14s CPU      0.14s WALL (      54 calls)
     potinit      :      0.21s CPU      0.22s WALL (       1 calls)
     hinit0       :      0.36s CPU      0.37s WALL (       1 calls)

     Called by electrons:
     c_bands      :      7.02s CPU      7.23s WALL (      19 calls)
     sum_band     :      1.47s CPU      1.51s WALL (      19 calls)
     v_of_rho     :      0.11s CPU      0.11s WALL (      20 calls)
     v_h          :      0.00s CPU      0.00s WALL (      20 calls)
     v_xc         :      0.10s CPU      0.11s WALL (      20 calls)
     newd         :      0.08s CPU      0.08s WALL (      20 calls)
     PAW_pot      :      3.83s CPU      4.11s WALL (      20 calls)
     mix_rho      :      0.01s CPU      0.01s WALL (      19 calls)

     Called by c_bands:
     init_us_2    :      0.18s CPU      0.19s WALL (    2160 calls)
     cegterg      :      5.91s CPU      6.09s WALL (    1026 calls)

     Called by sum_band:
     sum_band:wei :      0.02s CPU      0.02s WALL (      19 calls)
     sum_band:loo :      1.20s CPU      1.24s WALL (      19 calls)
     sum_band:buf :      0.01s CPU      0.01s WALL (    1026 calls)
     sum_band:ini :      0.08s CPU      0.08s WALL (    1026 calls)
     sum_band:cal :      0.05s CPU      0.05s WALL (    1026 calls)
     sum_band:bec :      0.01s CPU      0.01s WALL (    1026 calls)
     addusdens    :      0.16s CPU      0.16s WALL (      19 calls)
     addusd:skk   :      0.00s CPU      0.00s WALL (      38 calls)
     addusd:dgemm :      0.01s CPU      0.01s WALL (      76 calls)
     addusd:qvan2 :      0.13s CPU      0.13s WALL (      76 calls)

     Called by *egterg:
     cdiaghg      :      0.65s CPU      0.67s WALL (    2982 calls)
     cegterg:over :      0.11s CPU      0.12s WALL (    1956 calls)
     cegterg:upda :      0.07s CPU      0.07s WALL (    1956 calls)
     cegterg:last :      0.10s CPU      0.10s WALL (    1547 calls)
     h_psi        :      4.88s CPU      5.02s WALL (    3036 calls)
     s_psi        :      0.10s CPU      0.11s WALL (    3090 calls)
     g_psi        :      0.02s CPU      0.03s WALL (    1956 calls)

     Called by h_psi:
     h_psi:calbec :      0.13s CPU      0.13s WALL (    3036 calls)
     vloc_psi     :      4.49s CPU      4.62s WALL (    3036 calls)
     add_vuspsi   :      0.12s CPU      0.12s WALL (    3036 calls)
     vhpsi        :      0.10s CPU      0.11s WALL (    3036 calls)

     General routines
     calbec       :      0.23s CPU      0.23s WALL (    8178 calls)
     fft          :      0.02s CPU      0.02s WALL (     418 calls)
     ffts         :      0.00s CPU      0.00s WALL (      38 calls)
     fftw         :      4.71s CPU      4.86s WALL (  100374 calls)
     davcio       :      0.00s CPU      0.00s WALL (      54 calls)

     Parallel routines

     Hubbard U routines
     new_ns       :      0.04s CPU      0.04s WALL (      19 calls)
     vhpsi        :      0.10s CPU      0.11s WALL (    3036 calls)

     PAW routines
     PAW_pot      :      3.83s CPU      4.11s WALL (      20 calls)
     PAW_symme    :      0.00s CPU      0.00s WALL (      39 calls)

     PWSCF        :     13.35s CPU     13.94s WALL


   This run was terminated on:  13: 1: 8  19May2021            

=------------------------------------------------------------------------------=
   JOB DONE.
=------------------------------------------------------------------------------=
