
     Program PWSCF v.6.7GPU starts on  6Jul2021 at 21:47: 8 

     This program is part of the open-source Quantum ESPRESSO suite
     for quantum simulation of materials; please cite
         "P. Giannozzi et al., J. Phys.:Condens. Matter 21 395502 (2009);
         "P. Giannozzi et al., J. Phys.:Condens. Matter 29 465901 (2017);
         "P. Giannozzi et al., J. Chem. Phys. 152 154105 (2020);
          URL http://www.quantum-espresso.org", 
     in publications or presentations arising from this work. More details at
     http://www.quantum-espresso.org/quote

     Parallel version (MPI), running on     4 processors

     MPI processes distributed on     1 nodes
     R & G space division:  proc/nbgrp/npool/nimage =       4
     Waiting for input...
     Reading input from standard input

     Current dimensions of program PWSCF are:
     Max number of different atomic species (ntypx) = 10
     Max number of k-points (npk) =  40000
     Max angular momentum in pseudopotentials (lmaxx) =  3

     File /home/ponet/.julia/environments/DFControlDEV/Demo/Ni/outputs/Ni.update deleted, as requested

     File /home/ponet/.julia/environments/DFControlDEV/Demo/Ni/outputs/Ni.bfgs deleted, as requested
     file Ni.pbesol-n-kjpaw_psl.0.1.UPF: wavefunction(s)  4S 3D renormalized
     file Ni.pbesol-n-kjpaw_psl.0.1.UPF: wavefunction(s)  4S 3D renormalized
     Message from routine setup:
     using ibrav=0 with symmetry is DISCOURAGED, use correct ibrav instead

     Subspace diagonalization in iterative solution of the eigenvalue problem:
     a serial algorithm will be used


     Parallelization info
     --------------------
     sticks:   dense  smooth     PW     G-vecs:    dense   smooth      PW
     Min         119     119     42                 1232     1232     258
     Max         120     120     43                 1234     1234     259
     Sum         479     479    169                 4933     4933    1033

     Using Slab Decomposition



     bravais-lattice index     =            0
     lattice parameter (alat)  =       9.3691  a.u.
     unit-cell volume          =     145.3870 (a.u.)^3
     number of atoms/cell      =            2
     number of atomic types    =            2
     number of electrons       =        20.00
     number of Kohn-Sham states=           18
     kinetic-energy cutoff     =      40.0000  Ry
     charge density cutoff     =     160.0000  Ry
     scf convergence threshold =      1.0E-06
     mixing beta               =       0.7000
     number of iterations used =            8  plain     mixing
     energy convergence thresh.=      1.0E-04
     force convergence thresh. =      1.0E-03
     press convergence thresh. =      5.0E-01
     Exchange-correlation= SLA  PW   PSX  PSC
                           (   1   4  10   8   0   0   0)
     nstep                     =           50


     celldm(1)=   9.369149  celldm(2)=   0.000000  celldm(3)=   0.000000
     celldm(4)=   0.000000  celldm(5)=   0.000000  celldm(6)=   0.000000

     crystal axes: (cart. coord. in units of alat)
               a(1) = (   1.000000   0.000000   0.000000 )  
               a(2) = (   0.250000   0.433013   0.000000 )  
               a(3) = (   0.250000   0.144338   0.408248 )  

     reciprocal axes: (cart. coord. in units 2 pi/alat)
               b(1) = (  1.000000 -0.577350 -0.408248 )  
               b(2) = (  0.000000  2.309401 -0.816497 )  
               b(3) = (  0.000000  0.000000  2.449490 )  


     PseudoPot. # 1 for Ni read from file:
     /home/ponet/Documents/pseudos/pslibrary_pbesol/PSEUDOPOTENTIALS/Ni.pbesol-n-kjpaw_psl.0.1.UPF
     MD5 check sum: dc9a32037601bdf441cde0bb508f809f
     Pseudo is Projector augmented-wave + core cor, Zval = 10.0
     Generated using "atomic" code by A. Dal Corso  v.5.0.99 svn rev. 10869
     Shape of augmentation charge: PSQ
     Using radial grid of 1195 points,  6 beta functions with: 
                l(1) =   0
                l(2) =   0
                l(3) =   1
                l(4) =   1
                l(5) =   2
                l(6) =   2
     Q(r) pseudized with 0 coefficients 


     PseudoPot. # 2 for Ni read from file:
     /home/ponet/Documents/pseudos/pslibrary_pbesol/PSEUDOPOTENTIALS/Ni.pbesol-n-kjpaw_psl.0.1.UPF
     MD5 check sum: dc9a32037601bdf441cde0bb508f809f
     Pseudo is Projector augmented-wave + core cor, Zval = 10.0
     Generated using "atomic" code by A. Dal Corso  v.5.0.99 svn rev. 10869
     Shape of augmentation charge: PSQ
     Using radial grid of 1195 points,  6 beta functions with: 
                l(1) =   0
                l(2) =   0
                l(3) =   1
                l(4) =   1
                l(5) =   2
                l(6) =   2
     Q(r) pseudized with 0 coefficients 


     atomic species   valence    mass     pseudopotential
        Ni            10.00    58.69340     Ni( 1.00)
        Ni1           10.00    58.69340     Ni( 1.00)

     Starting magnetic structure 
     atomic species   magnetization
        Ni           0.100
        Ni1         -0.100


     Simplified LDA+U calculation (l_max = 2) with parameters (eV):
     atomic species    L          U    alpha       J0     beta
        Ni             2     4.0000   0.0000   0.0000   0.0000
        Ni1            2     4.0000   0.0000   0.0000   0.0000



      4 Sym. Ops., with inversion, found


                                    s                        frac. trans.

      isym =  1     identity                                     

 cryst.   s( 1) = (     1          0          0      )
                  (     0          1          0      )
                  (     0          0          1      )

 cart.    s( 1) = (  1.0000000  0.0000000  0.0000000 )
                  (  0.0000000  1.0000000  0.0000000 )
                  (  0.0000000  0.0000000  1.0000000 )


      isym =  2     180 deg rotation - cryst. axis [1,1,0]       

 cryst.   s( 2) = (    -1          2          0      )
                  (     0          1          0      )
                  (     0          1         -1      )

 cart.    s( 2) = ( -0.5000000  0.8660254  0.0000000 )
                  (  0.8660254  0.5000000  0.0000000 )
                  (  0.0000000  0.0000000 -1.0000000 )


      isym =  3     inversion                                    

 cryst.   s( 3) = (    -1          0          0      )
                  (     0         -1          0      )
                  (     0          0         -1      )

 cart.    s( 3) = ( -1.0000000  0.0000000  0.0000000 )
                  (  0.0000000 -1.0000000  0.0000000 )
                  (  0.0000000  0.0000000 -1.0000000 )


      isym =  4     inv. 180 deg rotation - cryst. axis [1,1,0]  

 cryst.   s( 4) = (     1         -2          0      )
                  (     0         -1          0      )
                  (     0         -1          1      )

 cart.    s( 4) = (  0.5000000 -0.8660254 -0.0000000 )
                  ( -0.8660254 -0.5000000 -0.0000000 )
                  (  0.0000000  0.0000000  1.0000000 )


   Cartesian axes

     site n.     atom                  positions (alat units)
         1           Ni  tau(   1) = (   0.0000000   0.0000000   0.0000000  )
         2           Ni1 tau(   2) = (   0.5000000   0.0000000   0.0000000  )

   Crystallographic axes

     site n.     atom                  positions (cryst. coord.)
         1           Ni  tau(   1) = (  0.0000000  0.0000000  0.0000000  )
         2           Ni1 tau(   2) = (  0.5000000  0.0000000  0.0000000  )

     number of k points=   108  Gaussian smearing, width (Ry)=  0.0100
                       cart. coord. in units 2pi/alat
        k(    1) = (   0.0833333   0.1443376   0.1020621), wk =   0.0092593
        k(    2) = (   0.0833333   0.1443376   0.5103104), wk =   0.0092593
        k(    3) = (   0.0833333   0.1443376   0.9185587), wk =   0.0092593
        k(    4) = (   0.0833333   0.1443376  -1.1226828), wk =   0.0092593
        k(    5) = (   0.0833333   0.1443376  -0.7144345), wk =   0.0092593
        k(    6) = (   0.0833333   0.1443376  -0.3061862), wk =   0.0092593
        k(    7) = (   0.0833333   0.5292377  -0.0340207), wk =   0.0092593
        k(    8) = (   0.0833333   0.5292377   0.3742276), wk =   0.0092593
        k(    9) = (   0.0833333   0.5292377   0.7824759), wk =   0.0092593
        k(   10) = (   0.0833333   0.5292377  -1.2587656), wk =   0.0092593
        k(   11) = (   0.0833333   0.5292377  -0.8505173), wk =   0.0092593
        k(   12) = (   0.0833333   0.5292377  -0.4422690), wk =   0.0092593
        k(   13) = (   0.0833333   0.9141379  -0.1701035), wk =   0.0092593
        k(   14) = (   0.0833333   0.9141379   0.2381448), wk =   0.0092593
        k(   15) = (   0.0833333   0.9141379   0.6463931), wk =   0.0092593
        k(   16) = (   0.0833333   0.9141379  -1.3948483), wk =   0.0092593
        k(   17) = (   0.0833333   0.9141379  -0.9866000), wk =   0.0092593
        k(   18) = (   0.0833333   0.9141379  -0.5783517), wk =   0.0092593
        k(   19) = (   0.0833333  -1.0103630   0.5103104), wk =   0.0092593
        k(   20) = (   0.0833333  -1.0103630   0.9185587), wk =   0.0092593
        k(   21) = (   0.0833333  -1.0103630   1.3268069), wk =   0.0092593
        k(   22) = (   0.0833333  -1.0103630  -0.7144345), wk =   0.0092593
        k(   23) = (   0.0833333  -1.0103630  -0.3061862), wk =   0.0092593
        k(   24) = (   0.0833333  -1.0103630   0.1020621), wk =   0.0092593
        k(   25) = (   0.0833333  -0.6254628   0.3742276), wk =   0.0092593
        k(   26) = (   0.0833333  -0.6254628   0.7824759), wk =   0.0092593
        k(   27) = (   0.0833333  -0.6254628   1.1907242), wk =   0.0092593
        k(   28) = (   0.0833333  -0.6254628  -0.8505173), wk =   0.0092593
        k(   29) = (   0.0833333  -0.6254628  -0.4422690), wk =   0.0092593
        k(   30) = (   0.0833333  -0.6254628  -0.0340207), wk =   0.0092593
        k(   31) = (   0.0833333  -0.2405626   0.2381448), wk =   0.0092593
        k(   32) = (   0.0833333  -0.2405626   0.6463931), wk =   0.0092593
        k(   33) = (   0.0833333  -0.2405626   1.0546414), wk =   0.0092593
        k(   34) = (   0.0833333  -0.2405626  -0.9866000), wk =   0.0092593
        k(   35) = (   0.0833333  -0.2405626  -0.5783517), wk =   0.0092593
        k(   36) = (   0.0833333  -0.2405626  -0.1701035), wk =   0.0092593
        k(   37) = (   0.2500000   0.0481125   0.0340207), wk =   0.0092593
        k(   38) = (   0.2500000   0.0481125   0.4422690), wk =   0.0092593
        k(   39) = (   0.2500000   0.0481125   0.8505173), wk =   0.0092593
        k(   40) = (   0.2500000   0.0481125  -1.1907242), wk =   0.0092593
        k(   41) = (   0.2500000   0.0481125  -0.7824759), wk =   0.0092593
        k(   42) = (   0.2500000   0.0481125  -0.3742276), wk =   0.0092593
        k(   43) = (   0.2500000   0.4330127  -0.1020621), wk =   0.0092593
        k(   44) = (   0.2500000   0.4330127   0.3061862), wk =   0.0092593
        k(   45) = (   0.2500000   0.4330127   0.7144345), wk =   0.0092593
        k(   46) = (   0.2500000   0.4330127  -1.3268069), wk =   0.0092593
        k(   47) = (   0.2500000   0.4330127  -0.9185587), wk =   0.0092593
        k(   48) = (   0.2500000   0.4330127  -0.5103104), wk =   0.0092593
        k(   49) = (   0.2500000   0.8179129  -0.2381448), wk =   0.0092593
        k(   50) = (   0.2500000   0.8179129   0.1701035), wk =   0.0092593
        k(   51) = (   0.2500000   0.8179129   0.5783517), wk =   0.0092593
        k(   52) = (   0.2500000   0.8179129  -1.4628897), wk =   0.0092593
        k(   53) = (   0.2500000   0.8179129  -1.0546414), wk =   0.0092593
        k(   54) = (   0.2500000   0.8179129  -0.6463931), wk =   0.0092593
        k(   55) = (   0.2500000  -1.1065880   0.4422690), wk =   0.0092593
        k(   56) = (   0.2500000  -1.1065880   0.8505173), wk =   0.0092593
        k(   57) = (   0.2500000  -1.1065880   1.2587656), wk =   0.0092593
        k(   58) = (   0.2500000  -1.1065880  -0.7824759), wk =   0.0092593
        k(   59) = (   0.2500000  -1.1065880  -0.3742276), wk =   0.0092593
        k(   60) = (   0.2500000  -1.1065880   0.0340207), wk =   0.0092593
        k(   61) = (   0.2500000  -0.7216878   0.3061862), wk =   0.0092593
        k(   62) = (   0.2500000  -0.7216878   0.7144345), wk =   0.0092593
        k(   63) = (   0.2500000  -0.7216878   1.1226828), wk =   0.0092593
        k(   64) = (   0.2500000  -0.7216878  -0.9185587), wk =   0.0092593
        k(   65) = (   0.2500000  -0.7216878  -0.5103104), wk =   0.0092593
        k(   66) = (   0.2500000  -0.7216878  -0.1020621), wk =   0.0092593
        k(   67) = (   0.2500000  -0.3367877   0.1701035), wk =   0.0092593
        k(   68) = (   0.2500000  -0.3367877   0.5783517), wk =   0.0092593
        k(   69) = (   0.2500000  -0.3367877   0.9866000), wk =   0.0092593
        k(   70) = (   0.2500000  -0.3367877  -1.0546414), wk =   0.0092593
        k(   71) = (   0.2500000  -0.3367877  -0.6463931), wk =   0.0092593
        k(   72) = (   0.2500000  -0.3367877  -0.2381448), wk =   0.0092593
        k(   73) = (   0.4166667  -0.0481125  -0.0340207), wk =   0.0092593
        k(   74) = (   0.4166667  -0.0481125   0.3742276), wk =   0.0092593
        k(   75) = (   0.4166667  -0.0481125   0.7824759), wk =   0.0092593
        k(   76) = (   0.4166667  -0.0481125  -1.2587656), wk =   0.0092593
        k(   77) = (   0.4166667  -0.0481125  -0.8505173), wk =   0.0092593
        k(   78) = (   0.4166667  -0.0481125  -0.4422690), wk =   0.0092593
        k(   79) = (   0.4166667   0.3367877  -0.1701035), wk =   0.0092593
        k(   80) = (   0.4166667   0.3367877   0.2381448), wk =   0.0092593
        k(   81) = (   0.4166667   0.3367877   0.6463931), wk =   0.0092593
        k(   82) = (   0.4166667   0.3367877  -1.3948483), wk =   0.0092593
        k(   83) = (   0.4166667   0.3367877  -0.9866000), wk =   0.0092593
        k(   84) = (   0.4166667   0.3367877  -0.5783517), wk =   0.0092593
        k(   85) = (   0.4166667   0.7216878  -0.3061862), wk =   0.0092593
        k(   86) = (   0.4166667   0.7216878   0.1020621), wk =   0.0092593
        k(   87) = (   0.4166667   0.7216878   0.5103104), wk =   0.0092593
        k(   88) = (   0.4166667   0.7216878  -1.5309311), wk =   0.0092593
        k(   89) = (   0.4166667   0.7216878  -1.1226828), wk =   0.0092593
        k(   90) = (   0.4166667   0.7216878  -0.7144345), wk =   0.0092593
        k(   91) = (   0.4166667  -1.2028131   0.3742276), wk =   0.0092593
        k(   92) = (   0.4166667  -1.2028131   0.7824759), wk =   0.0092593
        k(   93) = (   0.4166667  -1.2028131   1.1907242), wk =   0.0092593
        k(   94) = (   0.4166667  -1.2028131  -0.8505173), wk =   0.0092593
        k(   95) = (   0.4166667  -1.2028131  -0.4422690), wk =   0.0092593
        k(   96) = (   0.4166667  -1.2028131  -0.0340207), wk =   0.0092593
        k(   97) = (   0.4166667  -0.8179129   0.2381448), wk =   0.0092593
        k(   98) = (   0.4166667  -0.8179129   0.6463931), wk =   0.0092593
        k(   99) = (   0.4166667  -0.8179129   1.0546414), wk =   0.0092593
        k(  100) = (   0.4166667  -0.8179129  -0.9866000), wk =   0.0092593
        k(  101) = (   0.4166667  -0.8179129  -0.5783517), wk =   0.0092593
        k(  102) = (   0.4166667  -0.8179129  -0.1701035), wk =   0.0092593
        k(  103) = (   0.4166667  -0.4330127   0.1020621), wk =   0.0092593
        k(  104) = (   0.4166667  -0.4330127   0.5103104), wk =   0.0092593
        k(  105) = (   0.4166667  -0.4330127   0.9185587), wk =   0.0092593
        k(  106) = (   0.4166667  -0.4330127  -1.1226828), wk =   0.0092593
        k(  107) = (   0.4166667  -0.4330127  -0.7144345), wk =   0.0092593
        k(  108) = (   0.4166667  -0.4330127  -0.3061862), wk =   0.0092593

                       cryst. coord.
        k(    1) = (   0.0833333   0.0833333   0.0833333), wk =   0.0092593
        k(    2) = (   0.0833333   0.0833333   0.2500000), wk =   0.0092593
        k(    3) = (   0.0833333   0.0833333   0.4166667), wk =   0.0092593
        k(    4) = (   0.0833333   0.0833333  -0.4166667), wk =   0.0092593
        k(    5) = (   0.0833333   0.0833333  -0.2500000), wk =   0.0092593
        k(    6) = (   0.0833333   0.0833333  -0.0833333), wk =   0.0092593
        k(    7) = (   0.0833333   0.2500000   0.0833333), wk =   0.0092593
        k(    8) = (   0.0833333   0.2500000   0.2500000), wk =   0.0092593
        k(    9) = (   0.0833333   0.2500000   0.4166667), wk =   0.0092593
        k(   10) = (   0.0833333   0.2500000  -0.4166667), wk =   0.0092593
        k(   11) = (   0.0833333   0.2500000  -0.2500000), wk =   0.0092593
        k(   12) = (   0.0833333   0.2500000  -0.0833333), wk =   0.0092593
        k(   13) = (   0.0833333   0.4166667   0.0833333), wk =   0.0092593
        k(   14) = (   0.0833333   0.4166667   0.2500000), wk =   0.0092593
        k(   15) = (   0.0833333   0.4166667   0.4166667), wk =   0.0092593
        k(   16) = (   0.0833333   0.4166667  -0.4166667), wk =   0.0092593
        k(   17) = (   0.0833333   0.4166667  -0.2500000), wk =   0.0092593
        k(   18) = (   0.0833333   0.4166667  -0.0833333), wk =   0.0092593
        k(   19) = (   0.0833333  -0.4166667   0.0833333), wk =   0.0092593
        k(   20) = (   0.0833333  -0.4166667   0.2500000), wk =   0.0092593
        k(   21) = (   0.0833333  -0.4166667   0.4166667), wk =   0.0092593
        k(   22) = (   0.0833333  -0.4166667  -0.4166667), wk =   0.0092593
        k(   23) = (   0.0833333  -0.4166667  -0.2500000), wk =   0.0092593
        k(   24) = (   0.0833333  -0.4166667  -0.0833333), wk =   0.0092593
        k(   25) = (   0.0833333  -0.2500000   0.0833333), wk =   0.0092593
        k(   26) = (   0.0833333  -0.2500000   0.2500000), wk =   0.0092593
        k(   27) = (   0.0833333  -0.2500000   0.4166667), wk =   0.0092593
        k(   28) = (   0.0833333  -0.2500000  -0.4166667), wk =   0.0092593
        k(   29) = (   0.0833333  -0.2500000  -0.2500000), wk =   0.0092593
        k(   30) = (   0.0833333  -0.2500000  -0.0833333), wk =   0.0092593
        k(   31) = (   0.0833333  -0.0833333   0.0833333), wk =   0.0092593
        k(   32) = (   0.0833333  -0.0833333   0.2500000), wk =   0.0092593
        k(   33) = (   0.0833333  -0.0833333   0.4166667), wk =   0.0092593
        k(   34) = (   0.0833333  -0.0833333  -0.4166667), wk =   0.0092593
        k(   35) = (   0.0833333  -0.0833333  -0.2500000), wk =   0.0092593
        k(   36) = (   0.0833333  -0.0833333  -0.0833333), wk =   0.0092593
        k(   37) = (   0.2500000   0.0833333   0.0833333), wk =   0.0092593
        k(   38) = (   0.2500000   0.0833333   0.2500000), wk =   0.0092593
        k(   39) = (   0.2500000   0.0833333   0.4166667), wk =   0.0092593
        k(   40) = (   0.2500000   0.0833333  -0.4166667), wk =   0.0092593
        k(   41) = (   0.2500000   0.0833333  -0.2500000), wk =   0.0092593
        k(   42) = (   0.2500000   0.0833333  -0.0833333), wk =   0.0092593
        k(   43) = (   0.2500000   0.2500000   0.0833333), wk =   0.0092593
        k(   44) = (   0.2500000   0.2500000   0.2500000), wk =   0.0092593
        k(   45) = (   0.2500000   0.2500000   0.4166667), wk =   0.0092593
        k(   46) = (   0.2500000   0.2500000  -0.4166667), wk =   0.0092593
        k(   47) = (   0.2500000   0.2500000  -0.2500000), wk =   0.0092593
        k(   48) = (   0.2500000   0.2500000  -0.0833333), wk =   0.0092593
        k(   49) = (   0.2500000   0.4166667   0.0833333), wk =   0.0092593
        k(   50) = (   0.2500000   0.4166667   0.2500000), wk =   0.0092593
        k(   51) = (   0.2500000   0.4166667   0.4166667), wk =   0.0092593
        k(   52) = (   0.2500000   0.4166667  -0.4166667), wk =   0.0092593
        k(   53) = (   0.2500000   0.4166667  -0.2500000), wk =   0.0092593
        k(   54) = (   0.2500000   0.4166667  -0.0833333), wk =   0.0092593
        k(   55) = (   0.2500000  -0.4166667   0.0833333), wk =   0.0092593
        k(   56) = (   0.2500000  -0.4166667   0.2500000), wk =   0.0092593
        k(   57) = (   0.2500000  -0.4166667   0.4166667), wk =   0.0092593
        k(   58) = (   0.2500000  -0.4166667  -0.4166667), wk =   0.0092593
        k(   59) = (   0.2500000  -0.4166667  -0.2500000), wk =   0.0092593
        k(   60) = (   0.2500000  -0.4166667  -0.0833333), wk =   0.0092593
        k(   61) = (   0.2500000  -0.2500000   0.0833333), wk =   0.0092593
        k(   62) = (   0.2500000  -0.2500000   0.2500000), wk =   0.0092593
        k(   63) = (   0.2500000  -0.2500000   0.4166667), wk =   0.0092593
        k(   64) = (   0.2500000  -0.2500000  -0.4166667), wk =   0.0092593
        k(   65) = (   0.2500000  -0.2500000  -0.2500000), wk =   0.0092593
        k(   66) = (   0.2500000  -0.2500000  -0.0833333), wk =   0.0092593
        k(   67) = (   0.2500000  -0.0833333   0.0833333), wk =   0.0092593
        k(   68) = (   0.2500000  -0.0833333   0.2500000), wk =   0.0092593
        k(   69) = (   0.2500000  -0.0833333   0.4166667), wk =   0.0092593
        k(   70) = (   0.2500000  -0.0833333  -0.4166667), wk =   0.0092593
        k(   71) = (   0.2500000  -0.0833333  -0.2500000), wk =   0.0092593
        k(   72) = (   0.2500000  -0.0833333  -0.0833333), wk =   0.0092593
        k(   73) = (   0.4166667   0.0833333   0.0833333), wk =   0.0092593
        k(   74) = (   0.4166667   0.0833333   0.2500000), wk =   0.0092593
        k(   75) = (   0.4166667   0.0833333   0.4166667), wk =   0.0092593
        k(   76) = (   0.4166667   0.0833333  -0.4166667), wk =   0.0092593
        k(   77) = (   0.4166667   0.0833333  -0.2500000), wk =   0.0092593
        k(   78) = (   0.4166667   0.0833333  -0.0833333), wk =   0.0092593
        k(   79) = (   0.4166667   0.2500000   0.0833333), wk =   0.0092593
        k(   80) = (   0.4166667   0.2500000   0.2500000), wk =   0.0092593
        k(   81) = (   0.4166667   0.2500000   0.4166667), wk =   0.0092593
        k(   82) = (   0.4166667   0.2500000  -0.4166667), wk =   0.0092593
        k(   83) = (   0.4166667   0.2500000  -0.2500000), wk =   0.0092593
        k(   84) = (   0.4166667   0.2500000  -0.0833333), wk =   0.0092593
        k(   85) = (   0.4166667   0.4166667   0.0833333), wk =   0.0092593
        k(   86) = (   0.4166667   0.4166667   0.2500000), wk =   0.0092593
        k(   87) = (   0.4166667   0.4166667   0.4166667), wk =   0.0092593
        k(   88) = (   0.4166667   0.4166667  -0.4166667), wk =   0.0092593
        k(   89) = (   0.4166667   0.4166667  -0.2500000), wk =   0.0092593
        k(   90) = (   0.4166667   0.4166667  -0.0833333), wk =   0.0092593
        k(   91) = (   0.4166667  -0.4166667   0.0833333), wk =   0.0092593
        k(   92) = (   0.4166667  -0.4166667   0.2500000), wk =   0.0092593
        k(   93) = (   0.4166667  -0.4166667   0.4166667), wk =   0.0092593
        k(   94) = (   0.4166667  -0.4166667  -0.4166667), wk =   0.0092593
        k(   95) = (   0.4166667  -0.4166667  -0.2500000), wk =   0.0092593
        k(   96) = (   0.4166667  -0.4166667  -0.0833333), wk =   0.0092593
        k(   97) = (   0.4166667  -0.2500000   0.0833333), wk =   0.0092593
        k(   98) = (   0.4166667  -0.2500000   0.2500000), wk =   0.0092593
        k(   99) = (   0.4166667  -0.2500000   0.4166667), wk =   0.0092593
        k(  100) = (   0.4166667  -0.2500000  -0.4166667), wk =   0.0092593
        k(  101) = (   0.4166667  -0.2500000  -0.2500000), wk =   0.0092593
        k(  102) = (   0.4166667  -0.2500000  -0.0833333), wk =   0.0092593
        k(  103) = (   0.4166667  -0.0833333   0.0833333), wk =   0.0092593
        k(  104) = (   0.4166667  -0.0833333   0.2500000), wk =   0.0092593
        k(  105) = (   0.4166667  -0.0833333   0.4166667), wk =   0.0092593
        k(  106) = (   0.4166667  -0.0833333  -0.4166667), wk =   0.0092593
        k(  107) = (   0.4166667  -0.0833333  -0.2500000), wk =   0.0092593
        k(  108) = (   0.4166667  -0.0833333  -0.0833333), wk =   0.0092593

     Dense  grid:     4933 G-vectors     FFT dimensions: (  40,  20,  20)

     Dynamical RAM for                 wfc:       0.04 MB

     Dynamical RAM for     wfc (w. buffer):       9.24 MB

     Dynamical RAM for             U proj.:       0.02 MB

     Dynamical RAM for  U proj. (w. buff.):       5.13 MB

     Dynamical RAM for           str. fact:       0.04 MB

     Dynamical RAM for           local pot:       0.00 MB

     Dynamical RAM for          nlocal pot:       0.09 MB

     Dynamical RAM for                qrad:       4.06 MB

     Dynamical RAM for          rho,v,vnew:       0.30 MB

     Dynamical RAM for               rhoin:       0.10 MB

     Dynamical RAM for            rho*nmix:       0.60 MB

     Dynamical RAM for           G-vectors:       0.08 MB

     Dynamical RAM for          h,s,v(r/c):       0.06 MB

     Dynamical RAM for          <psi|beta>:       0.01 MB

     Dynamical RAM for                 psi:       0.09 MB

     Dynamical RAM for                hpsi:       0.09 MB

     Dynamical RAM for                spsi:       0.09 MB

     Dynamical RAM for      wfcinit/wfcrot:       0.09 MB

     Dynamical RAM for           addusdens:       3.53 MB

     Dynamical RAM for          addusforce:       3.54 MB

     Dynamical RAM for         addusstress:       3.81 MB

     Estimated static dynamical RAM per process >      19.27 MB

     Estimated max dynamical RAM per process >      23.68 MB

     Estimated total dynamical RAM >      94.72 MB

     Check: negative core charge=   -0.000002
     Generating pointlists ...
     new r_m :   0.2063 (alat units)  1.9324 (a.u.) for type    1
     new r_m :   0.2063 (alat units)  1.9324 (a.u.) for type    2

     Initial potential from superposition of free atoms

     starting charge   19.99954, renormalised to   20.00000
 --- in v_hubbard ---
Hubbard energy    0.3528
 -------
     Number of +U iterations with fixed ns =  0
     Starting occupations:
 --- enter write_ns ---
 LDA+U parameters:
U( 1)     =  4.00000000
U( 2)     =  4.00000000
atom    1   Tr[ns(na)] (up, down, total) =   5.00000  3.00000  8.00000
   spin  1
    eigenvalues: 
  1.000  1.000  1.000  1.000  1.000
    eigenvectors:
  1.000  0.000  0.000  0.000  0.000
  0.000  1.000  0.000  0.000  0.000
  0.000  0.000  1.000  0.000  0.000
  0.000  0.000  0.000  1.000  0.000
  0.000  0.000  0.000  0.000  1.000
    occupations:
  1.000  0.000  0.000  0.000  0.000
  0.000  1.000  0.000  0.000  0.000
  0.000  0.000  1.000  0.000  0.000
  0.000  0.000  0.000  1.000  0.000
  0.000  0.000  0.000  0.000  1.000
   spin  2
    eigenvalues: 
  0.600  0.600  0.600  0.600  0.600
    eigenvectors:
  1.000  0.000  0.000  0.000  0.000
  0.000  1.000  0.000  0.000  0.000
  0.000  0.000  1.000  0.000  0.000
  0.000  0.000  0.000  1.000  0.000
  0.000  0.000  0.000  0.000  1.000
    occupations:
  0.600  0.000  0.000  0.000  0.000
  0.000  0.600  0.000  0.000  0.000
  0.000  0.000  0.600  0.000  0.000
  0.000  0.000  0.000  0.600  0.000
  0.000  0.000  0.000  0.000  0.600
atomic mag. moment =   2.00000
atom    2   Tr[ns(na)] (up, down, total) =   3.00000  5.00000  8.00000
   spin  1
    eigenvalues: 
  0.600  0.600  0.600  0.600  0.600
    eigenvectors:
  1.000  0.000  0.000  0.000  0.000
  0.000  1.000  0.000  0.000  0.000
  0.000  0.000  1.000  0.000  0.000
  0.000  0.000  0.000  1.000  0.000
  0.000  0.000  0.000  0.000  1.000
    occupations:
  0.600  0.000  0.000  0.000  0.000
  0.000  0.600  0.000  0.000  0.000
  0.000  0.000  0.600  0.000  0.000
  0.000  0.000  0.000  0.600  0.000
  0.000  0.000  0.000  0.000  0.600
   spin  2
    eigenvalues: 
  1.000  1.000  1.000  1.000  1.000
    eigenvectors:
  1.000  0.000  0.000  0.000  0.000
  0.000  1.000  0.000  0.000  0.000
  0.000  0.000  1.000  0.000  0.000
  0.000  0.000  0.000  1.000  0.000
  0.000  0.000  0.000  0.000  1.000
    occupations:
  1.000  0.000  0.000  0.000  0.000
  0.000  1.000  0.000  0.000  0.000
  0.000  0.000  1.000  0.000  0.000
  0.000  0.000  0.000  1.000  0.000
  0.000  0.000  0.000  0.000  1.000
atomic mag. moment =  -2.00000
N of occupied +U levels =   16.000000
 --- exit write_ns ---
 Atomic wfc used for LDA+U Projector are NOT orthogonalized
     Starting wfcs are   18 randomized atomic wfcs
     Checking if some PAW data can be deallocated... 
       PAW data deallocated on    2 nodes for type:  1
       PAW data deallocated on    2 nodes for type:  2

     total cpu time spent up to now is        0.9 secs

     Self-consistent Calculation

     iteration #  1     ecut=    40.00 Ry     beta= 0.70
     Davidson diagonalization with overlap
     ethr =  1.00E-02,  avg # of iterations =  5.7
 --- enter write_ns ---
 LDA+U parameters:
U( 1)     =  4.00000000
U( 2)     =  4.00000000
atom    1   Tr[ns(na)] (up, down, total) =   4.87261  4.21134  9.08395
   spin  1
    eigenvalues: 
  0.968  0.969  0.972  0.982  0.983
    eigenvectors:
  0.000  0.751  0.077  0.000  0.171
  0.007  0.183  0.259  0.243  0.308
  0.020  0.061  0.086  0.730  0.103
  0.730  0.001  0.144  0.020  0.105
  0.243  0.003  0.433  0.007  0.314
    occupations:
  0.971 -0.004  0.002  0.002 -0.003
 -0.004  0.977  0.003 -0.001  0.004
  0.002  0.003  0.980  0.003 -0.001
  0.002 -0.001  0.003  0.970 -0.004
 -0.003  0.004 -0.001 -0.004  0.974
   spin  2
    eigenvalues: 
  0.785  0.795  0.855  0.882  0.894
    eigenvectors:
  0.000  0.538  0.182  0.000  0.281
  0.218  0.059  0.202  0.032  0.488
  0.655  0.020  0.067  0.095  0.163
  0.095  0.096  0.137  0.655  0.017
  0.032  0.287  0.411  0.218  0.051
    occupations:
  0.834  0.025 -0.015 -0.016  0.028
  0.025  0.856 -0.034  0.015  0.006
 -0.015 -0.034  0.817  0.024  0.015
 -0.016  0.015  0.024  0.861  0.015
  0.028  0.006  0.015  0.015  0.844
atomic mag. moment =   0.66127
atom    2   Tr[ns(na)] (up, down, total) =   4.19968  4.87393  9.07361
   spin  1
    eigenvalues: 
  0.784  0.799  0.845  0.882  0.890
    eigenvectors:
  0.000  0.559  0.230  0.211  0.000
  0.222  0.029  0.189  0.532  0.028
  0.667  0.010  0.063  0.177  0.083
  0.083  0.101  0.129  0.020  0.667
  0.028  0.302  0.388  0.060  0.222
    occupations:
  0.827  0.018 -0.011 -0.013  0.023
  0.018  0.851 -0.032  0.013  0.011
 -0.011 -0.032  0.814  0.026  0.013
 -0.013  0.013  0.026  0.866  0.021
  0.023  0.011  0.013  0.021  0.842
   spin  2
    eigenvalues: 
  0.968  0.969  0.972  0.982  0.983
    eigenvectors:
  0.000  0.747  0.076  0.000  0.177
  0.005  0.185  0.266  0.245  0.298
  0.014  0.062  0.089  0.736  0.099
  0.736  0.001  0.142  0.014  0.106
  0.245  0.004  0.427  0.005  0.319
    occupations:
  0.972 -0.003  0.002  0.002 -0.003
 -0.003  0.977  0.003 -0.001  0.004
  0.002  0.003  0.980  0.002 -0.001
  0.002 -0.001  0.002  0.971 -0.003
 -0.003  0.004 -0.001 -0.003  0.974
atomic mag. moment =  -0.67425
N of occupied +U levels =   18.157560
 --- exit write_ns ---

     Threshold (ethr) on eigenvalues was too large:
     Diagonalizing with lowered threshold

     Davidson diagonalization with overlap
     ethr =  1.82E-04,  avg # of iterations =  4.3
 --- enter write_ns ---
 LDA+U parameters:
U( 1)     =  4.00000000
U( 2)     =  4.00000000
atom    1   Tr[ns(na)] (up, down, total) =   4.87223  4.21059  9.08282
   spin  1
    eigenvalues: 
  0.968  0.968  0.972  0.982  0.983
    eigenvectors:
  0.000  0.752  0.078  0.000  0.170
  0.007  0.183  0.259  0.243  0.308
  0.021  0.061  0.086  0.729  0.103
  0.729  0.001  0.144  0.021  0.105
  0.243  0.003  0.432  0.007  0.315
    occupations:
  0.971 -0.004  0.002  0.002 -0.003
 -0.004  0.977  0.003 -0.001  0.004
  0.002  0.003  0.980  0.003 -0.001
  0.002 -0.001  0.003  0.970 -0.004
 -0.003  0.004 -0.001 -0.004  0.974
   spin  2
    eigenvalues: 
  0.785  0.795  0.855  0.882  0.894
    eigenvectors:
  0.000  0.538  0.182  0.000  0.281
  0.218  0.059  0.203  0.032  0.488
  0.655  0.020  0.068  0.095  0.163
  0.095  0.096  0.137  0.655  0.017
  0.032  0.288  0.411  0.218  0.051
    occupations:
  0.834  0.025 -0.015 -0.016  0.028
  0.025  0.856 -0.034  0.015  0.006
 -0.015 -0.034  0.817  0.024  0.015
 -0.016  0.015  0.024  0.861  0.015
  0.028  0.006  0.015  0.015  0.843
atomic mag. moment =   0.66163
atom    2   Tr[ns(na)] (up, down, total) =   4.19889  4.87354  9.07244
   spin  1
    eigenvalues: 
  0.783  0.799  0.844  0.882  0.890
    eigenvectors:
  0.000  0.560  0.230  0.210  0.000
  0.222  0.029  0.188  0.533  0.028
  0.667  0.010  0.063  0.178  0.083
  0.083  0.101  0.130  0.020  0.667
  0.028  0.302  0.389  0.059  0.222
    occupations:
  0.827  0.018 -0.011 -0.013  0.023
  0.018  0.851 -0.032  0.013  0.011
 -0.011 -0.032  0.814  0.026  0.013
 -0.013  0.013  0.026  0.866  0.021
  0.023  0.011  0.013  0.021  0.841
   spin  2
    eigenvalues: 
  0.968  0.969  0.972  0.982  0.983
    eigenvectors:
  0.000  0.747  0.077  0.000  0.176
  0.005  0.185  0.266  0.245  0.299
  0.015  0.062  0.089  0.735  0.100
  0.735  0.001  0.142  0.015  0.106
  0.245  0.004  0.427  0.005  0.319
    occupations:
  0.972 -0.004  0.002  0.002 -0.003
 -0.004  0.977  0.003 -0.001  0.004
  0.002  0.003  0.980  0.002 -0.001
  0.002 -0.001  0.002  0.971 -0.003
 -0.003  0.004 -0.001 -0.003  0.974
atomic mag. moment =  -0.67465
N of occupied +U levels =   18.155261
 --- exit write_ns ---
 --- in v_hubbard ---
Hubbard energy    0.2301
 -------

     total cpu time spent up to now is        3.2 secs

     total energy              =    -365.99386608 Ry
     estimated scf accuracy    <       0.03486968 Ry

     total magnetization       =    -0.01 Bohr mag/cell
     absolute magnetization    =     1.59 Bohr mag/cell

     iteration #  2     ecut=    40.00 Ry     beta= 0.70
     Davidson diagonalization with overlap
     ethr =  1.74E-04,  avg # of iterations =  2.1
 --- enter write_ns ---
 LDA+U parameters:
U( 1)     =  4.00000000
U( 2)     =  4.00000000
atom    1   Tr[ns(na)] (up, down, total) =   4.74720  4.15699  8.90419
   spin  1
    eigenvalues: 
  0.937  0.937  0.939  0.966  0.968
    eigenvectors:
  0.000  0.802  0.001  0.000  0.197
  0.004  0.075  0.412  0.246  0.264
  0.011  0.025  0.137  0.739  0.088
  0.739  0.024  0.113  0.011  0.113
  0.246  0.073  0.338  0.004  0.339
    occupations:
  0.943 -0.007  0.004  0.005 -0.008
 -0.007  0.953  0.007 -0.003  0.009
  0.004  0.007  0.962  0.005 -0.003
  0.005 -0.003  0.005  0.941 -0.007
 -0.008  0.009 -0.003 -0.007  0.948
   spin  2
    eigenvalues: 
  0.758  0.775  0.813  0.902  0.909
    eigenvectors:
  0.000  0.565  0.193  0.000  0.242
  0.210  0.032  0.227  0.040  0.491
  0.631  0.011  0.076  0.119  0.164
  0.119  0.098  0.126  0.631  0.026
  0.040  0.294  0.378  0.210  0.078
    occupations:
  0.815  0.038 -0.022 -0.017  0.029
  0.038  0.851 -0.040  0.014  0.028
 -0.022 -0.040  0.804  0.044  0.014
 -0.017  0.014  0.044  0.861  0.031
  0.029  0.028  0.014  0.031  0.826
atomic mag. moment =   0.59020
atom    2   Tr[ns(na)] (up, down, total) =   4.23944  4.76404  9.00348
   spin  1
    eigenvalues: 
  0.785  0.793  0.826  0.916  0.919
    eigenvectors:
  0.000  0.470  0.326  0.204  0.000
  0.209  0.005  0.234  0.511  0.041
  0.627  0.002  0.078  0.170  0.123
  0.123  0.131  0.091  0.029  0.627
  0.041  0.393  0.272  0.086  0.209
    occupations:
  0.829  0.031 -0.018 -0.015  0.026
  0.031  0.867 -0.035  0.011  0.030
 -0.018 -0.035  0.827  0.043  0.011
 -0.015  0.011  0.043  0.877  0.034
  0.026  0.030  0.011  0.034  0.839
   spin  2
    eigenvalues: 
  0.939  0.940  0.944  0.970  0.971
    eigenvectors:
  0.000  0.774  0.012  0.000  0.213
  0.002  0.121  0.360  0.248  0.269
  0.006  0.040  0.120  0.744  0.090
  0.744  0.016  0.127  0.006  0.107
  0.248  0.048  0.381  0.002  0.321
    occupations:
  0.947 -0.008  0.004  0.004 -0.008
 -0.008  0.957  0.007 -0.003  0.008
  0.004  0.007  0.965  0.005 -0.003
  0.004 -0.003  0.005  0.943 -0.007
 -0.008  0.008 -0.003 -0.007  0.951
atomic mag. moment =  -0.52459
N of occupied +U levels =   17.907668
 --- exit write_ns ---
 --- in v_hubbard ---
Hubbard energy    0.2386
 -------

     total cpu time spent up to now is        4.2 secs

     total energy              =    -366.00171111 Ry
     estimated scf accuracy    <       0.08408797 Ry

     total magnetization       =     0.07 Bohr mag/cell
     absolute magnetization    =     1.32 Bohr mag/cell

     iteration #  3     ecut=    40.00 Ry     beta= 0.70
     Davidson diagonalization with overlap
     ethr =  1.74E-04,  avg # of iterations =  2.1
 --- enter write_ns ---
 LDA+U parameters:
U( 1)     =  4.00000000
U( 2)     =  4.00000000
atom    1   Tr[ns(na)] (up, down, total) =   4.80532  4.47895  9.28427
   spin  1
    eigenvalues: 
  0.947  0.948  0.956  0.977  0.978
    eigenvectors:
  0.630  0.000  0.145  0.000  0.226
  0.278  0.001  0.199  0.249  0.274
  0.093  0.003  0.066  0.747  0.091
  0.000  0.747  0.148  0.003  0.102
  0.000  0.249  0.443  0.001  0.307
    occupations:
  0.955 -0.009  0.005  0.003 -0.006
 -0.009  0.965  0.007 -0.003  0.007
  0.005  0.007  0.973  0.003 -0.003
  0.003 -0.003  0.003  0.952 -0.007
 -0.006  0.007 -0.003 -0.007  0.960
   spin  2
    eigenvalues: 
  0.845  0.855  0.889  0.943  0.947
    eigenvectors:
  0.556  0.000  0.212  0.000  0.232
  0.027  0.205  0.225  0.045  0.498
  0.009  0.615  0.075  0.135  0.166
  0.102  0.135  0.122  0.615  0.026
  0.307  0.045  0.366  0.205  0.077
    occupations:
  0.878  0.025 -0.014 -0.015  0.026
  0.025  0.912 -0.024  0.010  0.016
 -0.014 -0.024  0.885  0.028  0.010
 -0.015  0.010  0.028  0.915  0.022
  0.026  0.016  0.010  0.022  0.890
atomic mag. moment =   0.32637
atom    2   Tr[ns(na)] (up, down, total) =   4.09931  4.77856  8.87787
   spin  1
    eigenvalues: 
  0.747  0.765  0.788  0.895  0.904
    eigenvectors:
  0.000  0.362  0.442  0.197  0.000
  0.213  0.000  0.241  0.508  0.037
  0.639  0.000  0.080  0.169  0.111
  0.111  0.159  0.059  0.031  0.639
  0.037  0.478  0.177  0.094  0.213
    occupations:
  0.801  0.034 -0.020 -0.014  0.024
  0.034  0.838 -0.039  0.010  0.038
 -0.020 -0.039  0.793  0.050  0.010
 -0.014  0.010  0.050  0.858  0.041
  0.024  0.038  0.010  0.041  0.810
   spin  2
    eigenvalues: 
  0.946  0.946  0.950  0.968  0.968
    eigenvectors:
  0.562  0.000  0.216  0.000  0.222
  0.016  0.003  0.492  0.247  0.242
  0.005  0.010  0.164  0.740  0.081
  0.104  0.740  0.032  0.010  0.114
  0.313  0.247  0.096  0.003  0.341
    occupations:
  0.952 -0.004  0.002  0.004 -0.007
 -0.004  0.959  0.005 -0.002  0.006
  0.002  0.005  0.965  0.004 -0.002
  0.004 -0.002  0.004  0.949 -0.004
 -0.007  0.006 -0.002 -0.004  0.954
atomic mag. moment =  -0.67925
N of occupied +U levels =   18.162144
 --- exit write_ns ---
 --- in v_hubbard ---
Hubbard energy    0.2387
 -------

     total cpu time spent up to now is        5.1 secs

     total energy              =    -366.01290633 Ry
     estimated scf accuracy    <       0.10940245 Ry

     total magnetization       =    -0.37 Bohr mag/cell
     absolute magnetization    =     1.19 Bohr mag/cell

     iteration #  4     ecut=    40.00 Ry     beta= 0.70
     Davidson diagonalization with overlap
     ethr =  1.74E-04,  avg # of iterations =  1.1
 --- enter write_ns ---
 LDA+U parameters:
U( 1)     =  4.00000000
U( 2)     =  4.00000000
atom    1   Tr[ns(na)] (up, down, total) =   4.78825  4.27315  9.06139
   spin  1
    eigenvalues: 
  0.946  0.947  0.950  0.972  0.973
    eigenvectors:
  0.000  0.720  0.055  0.000  0.226
  0.001  0.188  0.315  0.249  0.248
  0.003  0.063  0.105  0.747  0.083
  0.747  0.008  0.131  0.003  0.111
  0.249  0.023  0.394  0.001  0.333
    occupations:
  0.953 -0.007  0.004  0.004 -0.007
 -0.007  0.961  0.007 -0.003  0.007
  0.004  0.007  0.968  0.003 -0.003
  0.004 -0.003  0.003  0.949 -0.006
 -0.007  0.007 -0.003 -0.006  0.957
   spin  2
    eigenvalues: 
  0.784  0.798  0.834  0.926  0.930
    eigenvectors:
  0.000  0.550  0.200  0.000  0.250
  0.211  0.033  0.231  0.039  0.487
  0.634  0.011  0.077  0.116  0.162
  0.116  0.101  0.123  0.634  0.025
  0.039  0.304  0.370  0.211  0.076
    occupations:
  0.839  0.038 -0.022 -0.016  0.028
  0.038  0.873 -0.039  0.014  0.028
 -0.022 -0.039  0.828  0.044  0.014
 -0.016  0.014  0.044  0.886  0.032
  0.028  0.028  0.014  0.032  0.848
atomic mag. moment =   0.51510
atom    2   Tr[ns(na)] (up, down, total) =   4.31003  4.80043  9.11046
   spin  1
    eigenvalues: 
  0.799  0.808  0.837  0.932  0.934
    eigenvectors:
  0.000  0.439  0.345  0.216  0.000
  0.210  0.004  0.243  0.503  0.040
  0.630  0.001  0.081  0.168  0.120
  0.120  0.139  0.083  0.028  0.630
  0.040  0.417  0.248  0.085  0.210
    occupations:
  0.845  0.032 -0.019 -0.014  0.025
  0.032  0.880 -0.035  0.011  0.031
 -0.019 -0.035  0.841  0.043  0.011
 -0.014  0.011  0.043  0.892  0.035
  0.025  0.031  0.011  0.035  0.852
   spin  2
    eigenvalues: 
  0.948  0.950  0.954  0.974  0.975
    eigenvectors:
  0.000  0.742  0.022  0.000  0.237
  0.001  0.146  0.357  0.249  0.246
  0.002  0.049  0.119  0.748  0.082
  0.748  0.016  0.125  0.002  0.109
  0.249  0.047  0.376  0.001  0.326
    occupations:
  0.956 -0.006  0.004  0.004 -0.007
 -0.006  0.963  0.006 -0.003  0.006
  0.004  0.006  0.970  0.003 -0.003
  0.004 -0.003  0.003  0.952 -0.006
 -0.007  0.006 -0.003 -0.006  0.959
atomic mag. moment =  -0.49041
N of occupied +U levels =   18.171854
 --- exit write_ns ---
 --- in v_hubbard ---
Hubbard energy    0.2375
 -------

     total cpu time spent up to now is        6.0 secs

     total energy              =    -366.01945004 Ry
     estimated scf accuracy    <       0.00621092 Ry

     total magnetization       =     0.02 Bohr mag/cell
     absolute magnetization    =     1.20 Bohr mag/cell

     iteration #  5     ecut=    40.00 Ry     beta= 0.70
     Davidson diagonalization with overlap
     ethr =  3.11E-05,  avg # of iterations =  1.4
 --- enter write_ns ---
 LDA+U parameters:
U( 1)     =  4.00000000
U( 2)     =  4.00000000
atom    1   Tr[ns(na)] (up, down, total) =   4.78148  4.29941  9.08089
   spin  1
    eigenvalues: 
  0.943  0.944  0.949  0.972  0.973
    eigenvectors:
  0.000  0.697  0.078  0.000  0.225
  0.001  0.214  0.286  0.249  0.250
  0.003  0.071  0.095  0.747  0.083
  0.747  0.004  0.135  0.003  0.110
  0.249  0.013  0.406  0.001  0.331
    occupations:
  0.951 -0.008  0.004  0.004 -0.007
 -0.008  0.960  0.007 -0.003  0.007
  0.004  0.007  0.968  0.004 -0.003
  0.004 -0.003  0.004  0.947 -0.007
 -0.007  0.007 -0.003 -0.007  0.956
   spin  2
    eigenvalues: 
  0.794  0.805  0.835  0.931  0.934
    eigenvectors:
  0.000  0.529  0.227  0.000  0.244
  0.210  0.024  0.237  0.040  0.489
  0.629  0.008  0.079  0.121  0.163
  0.121  0.110  0.114  0.629  0.026
  0.040  0.329  0.342  0.210  0.079
    occupations:
  0.843  0.038 -0.022 -0.015  0.027
  0.038  0.878 -0.036  0.012  0.029
 -0.022 -0.036  0.837  0.043  0.012
 -0.015  0.012  0.043  0.890  0.033
  0.027  0.029  0.012  0.033  0.851
atomic mag. moment =   0.48207
atom    2   Tr[ns(na)] (up, down, total) =   4.28576  4.78984  9.07559
   spin  1
    eigenvalues: 
  0.793  0.803  0.826  0.931  0.933
    eigenvectors:
  0.000  0.362  0.424  0.214  0.000
  0.209  0.000  0.248  0.502  0.041
  0.627  0.000  0.083  0.167  0.123
  0.123  0.159  0.061  0.029  0.627
  0.041  0.478  0.184  0.088  0.209
    occupations:
  0.840  0.035 -0.020 -0.014  0.024
  0.035  0.876 -0.035  0.010  0.035
 -0.020 -0.035  0.836  0.046  0.010
 -0.014  0.010  0.046  0.888  0.038
  0.024  0.035  0.010  0.038  0.845
   spin  2
    eigenvalues: 
  0.945  0.947  0.952  0.972  0.973
    eigenvectors:
  0.000  0.748  0.016  0.000  0.236
  0.001  0.134  0.377  0.249  0.239
  0.002  0.045  0.126  0.748  0.080
  0.748  0.019  0.120  0.002  0.111
  0.249  0.056  0.361  0.001  0.334
    occupations:
  0.953 -0.007  0.004  0.004 -0.007
 -0.007  0.961  0.006 -0.003  0.006
  0.004  0.006  0.969  0.003 -0.003
  0.004 -0.003  0.003  0.949 -0.007
 -0.007  0.006 -0.003 -0.007  0.957
atomic mag. moment =  -0.50408
N of occupied +U levels =   18.156489
 --- exit write_ns ---
 --- in v_hubbard ---
Hubbard energy    0.2346
 -------

     total cpu time spent up to now is        6.8 secs

     total energy              =    -366.02095841 Ry
     estimated scf accuracy    <       0.00241096 Ry

     total magnetization       =    -0.02 Bohr mag/cell
     absolute magnetization    =     1.17 Bohr mag/cell

     iteration #  6     ecut=    40.00 Ry     beta= 0.70
     Davidson diagonalization with overlap
     ethr =  1.21E-05,  avg # of iterations =  1.4
 --- enter write_ns ---
 LDA+U parameters:
U( 1)     =  4.00000000
U( 2)     =  4.00000000
atom    1   Tr[ns(na)] (up, down, total) =   4.75766  4.33043  9.08809
   spin  1
    eigenvalues: 
  0.935  0.936  0.947  0.969  0.971
    eigenvectors:
  0.000  0.698  0.096  0.000  0.205
  0.002  0.219  0.278  0.248  0.253
  0.005  0.073  0.093  0.745  0.084
  0.745  0.002  0.133  0.005  0.114
  0.248  0.007  0.400  0.002  0.343
    occupations:
  0.944 -0.010  0.006  0.004 -0.007
 -0.010  0.956  0.007 -0.003  0.007
  0.006  0.007  0.965  0.004 -0.003
  0.004 -0.003  0.004  0.941 -0.010
 -0.007  0.007 -0.003 -0.010  0.952
   spin  2
    eigenvalues: 
  0.809  0.813  0.823  0.942  0.943
    eigenvectors:
  0.136  0.000  0.634  0.000  0.230
  0.020  0.206  0.238  0.044  0.491
  0.007  0.617  0.079  0.133  0.164
  0.209  0.133  0.012  0.617  0.029
  0.627  0.044  0.036  0.206  0.086
    occupations:
  0.849  0.040 -0.023 -0.012  0.021
  0.040  0.885 -0.028  0.006  0.039
 -0.023 -0.028  0.852  0.046  0.006
 -0.012  0.006  0.046  0.896  0.041
  0.021  0.039  0.006  0.041  0.849
atomic mag. moment =   0.42723
atom    2   Tr[ns(na)] (up, down, total) =   4.29839  4.77063  9.06902
   spin  1
    eigenvalues: 
  0.792  0.806  0.818  0.941  0.942
    eigenvectors:
  0.001  0.000  0.788  0.211  0.000
  0.111  0.204  0.143  0.496  0.046
  0.037  0.612  0.048  0.165  0.138
  0.213  0.138  0.005  0.032  0.612
  0.638  0.046  0.016  0.095  0.204
    occupations:
  0.844  0.040 -0.023 -0.011  0.018
  0.040  0.879 -0.028  0.003  0.047
 -0.023 -0.028  0.847  0.051  0.003
 -0.011  0.003  0.051  0.890  0.045
  0.018  0.047  0.003  0.045  0.838
   spin  2
    eigenvalues: 
  0.939  0.940  0.950  0.970  0.971
    eigenvectors:
  0.000  0.713  0.065  0.000  0.221
  0.001  0.194  0.324  0.249  0.232
  0.003  0.065  0.108  0.747  0.077
  0.747  0.007  0.125  0.003  0.118
  0.249  0.021  0.376  0.001  0.353
    occupations:
  0.948 -0.009  0.005  0.004 -0.007
 -0.009  0.958  0.007 -0.002  0.006
  0.005  0.007  0.966  0.003 -0.002
  0.004 -0.002  0.003  0.944 -0.009
 -0.007  0.006 -0.002 -0.009  0.955
atomic mag. moment =  -0.47224
N of occupied +U levels =   18.157110
 --- exit write_ns ---
 --- in v_hubbard ---
Hubbard energy    0.2350
 -------

     total cpu time spent up to now is        7.7 secs

     total energy              =    -366.02198996 Ry
     estimated scf accuracy    <       0.00061521 Ry

     total magnetization       =    -0.05 Bohr mag/cell
     absolute magnetization    =     1.06 Bohr mag/cell

     iteration #  7     ecut=    40.00 Ry     beta= 0.70
     Davidson diagonalization with overlap
     ethr =  3.08E-06,  avg # of iterations =  2.0
 --- enter write_ns ---
 LDA+U parameters:
U( 1)     =  4.00000000
U( 2)     =  4.00000000
atom    1   Tr[ns(na)] (up, down, total) =   4.75098  4.33649  9.08747
   spin  1
    eigenvalues: 
  0.932  0.934  0.947  0.968  0.970
    eigenvectors:
  0.000  0.715  0.098  0.000  0.187
  0.003  0.209  0.283  0.247  0.258
  0.009  0.070  0.094  0.741  0.086
  0.741  0.002  0.131  0.009  0.117
  0.247  0.005  0.393  0.003  0.352
    occupations:
  0.942 -0.010  0.006  0.004 -0.007
 -0.010  0.955  0.007 -0.002  0.007
  0.006  0.007  0.964  0.005 -0.002
  0.004 -0.002  0.005  0.939 -0.011
 -0.007  0.007 -0.002 -0.011  0.951
   spin  2
    eigenvalues: 
  0.804  0.821  0.823  0.944  0.944
    eigenvectors:
  0.016  0.000  0.753  0.000  0.231
  0.077  0.206  0.183  0.044  0.490
  0.026  0.618  0.061  0.132  0.163
  0.220  0.132  0.001  0.618  0.029
  0.661  0.044  0.002  0.206  0.087
    occupations:
  0.851  0.040 -0.023 -0.011  0.019
  0.040  0.886 -0.025  0.003  0.041
 -0.023 -0.025  0.857  0.045  0.003
 -0.011  0.003  0.045  0.897  0.044
  0.019  0.041  0.003  0.044  0.846
atomic mag. moment =   0.41449
atom    2   Tr[ns(na)] (up, down, total) =   4.30018  4.76832  9.06850
   spin  1
    eigenvalues: 
  0.783  0.813  0.819  0.943  0.943
    eigenvectors:
  0.006  0.000  0.783  0.211  0.000
  0.144  0.203  0.110  0.496  0.047
  0.048  0.609  0.037  0.165  0.141
  0.201  0.141  0.017  0.032  0.609
  0.602  0.047  0.052  0.096  0.203
    occupations:
  0.845  0.041 -0.024 -0.009  0.015
  0.041  0.880 -0.024  0.000  0.050
 -0.024 -0.024  0.852  0.051  0.000
 -0.009  0.000  0.051  0.890  0.049
  0.015  0.050  0.000  0.049  0.834
   spin  2
    eigenvalues: 
  0.937  0.939  0.952  0.969  0.971
    eigenvectors:
  0.000  0.717  0.079  0.000  0.204
  0.002  0.199  0.313  0.248  0.238
  0.005  0.066  0.104  0.745  0.079
  0.745  0.004  0.126  0.005  0.120
  0.248  0.013  0.377  0.002  0.359
    occupations:
  0.946 -0.009  0.005  0.004 -0.006
 -0.009  0.958  0.006 -0.002  0.006
  0.005  0.006  0.966  0.004 -0.002
  0.004 -0.002  0.004  0.943 -0.010
 -0.006  0.006 -0.002 -0.010  0.955
atomic mag. moment =  -0.46815
N of occupied +U levels =   18.155967
 --- exit write_ns ---
 --- in v_hubbard ---
Hubbard energy    0.2343
 -------

     total cpu time spent up to now is        8.5 secs

     total energy              =    -366.02207985 Ry
     estimated scf accuracy    <       0.00041709 Ry

     total magnetization       =    -0.06 Bohr mag/cell
     absolute magnetization    =     1.04 Bohr mag/cell

     iteration #  8     ecut=    40.00 Ry     beta= 0.70
     Davidson diagonalization with overlap
     ethr =  2.09E-06,  avg # of iterations =  1.7
 --- enter write_ns ---
 LDA+U parameters:
U( 1)     =  4.00000000
U( 2)     =  4.00000000
atom    1   Tr[ns(na)] (up, down, total) =   4.73298  4.35749  9.09047
   spin  1
    eigenvalues: 
  0.924  0.927  0.949  0.966  0.968
    eigenvectors:
  0.000  0.754  0.101  0.000  0.144
  0.008  0.182  0.303  0.242  0.265
  0.025  0.061  0.101  0.725  0.088
  0.725  0.001  0.124  0.025  0.126
  0.242  0.002  0.371  0.008  0.377
    occupations:
  0.935 -0.012  0.007  0.003 -0.005
 -0.012  0.954  0.006 -0.000  0.008
  0.007  0.006  0.961  0.008 -0.000
  0.003 -0.000  0.008  0.934 -0.014
 -0.005  0.008 -0.000 -0.014  0.950
   spin  2
    eigenvalues: 
  0.787  0.829  0.845  0.948  0.948
    eigenvectors:
  0.007  0.756  0.000  0.237  0.000
  0.139  0.125  0.208  0.486  0.042
  0.046  0.042  0.623  0.162  0.127
  0.202  0.019  0.127  0.029  0.623
  0.605  0.058  0.042  0.087  0.208
    occupations:
  0.857  0.041 -0.024 -0.008  0.014
  0.041  0.889 -0.015 -0.004  0.046
 -0.024 -0.015  0.871  0.041 -0.004
 -0.008 -0.004  0.041  0.900  0.053
  0.014  0.046 -0.004  0.053  0.840
atomic mag. moment =   0.37549
atom    2   Tr[ns(na)] (up, down, total) =   4.29883  4.76260  9.06143
   spin  1
    eigenvalues: 
  0.752  0.824  0.832  0.945  0.946
    eigenvectors:
  0.036  0.751  0.000  0.212  0.000
  0.175  0.080  0.201  0.496  0.049
  0.058  0.027  0.604  0.165  0.146
  0.183  0.036  0.146  0.032  0.604
  0.548  0.107  0.049  0.095  0.201
    occupations:
  0.847  0.045 -0.026 -0.004  0.007
  0.045  0.879 -0.014 -0.008  0.060
 -0.026 -0.014  0.862  0.050 -0.008
 -0.004 -0.008  0.050  0.889  0.059
  0.007  0.060 -0.008  0.059  0.821
   spin  2
    eigenvalues: 
  0.935  0.936  0.955  0.968  0.969
    eigenvectors:
  0.000  0.734  0.102  0.000  0.165
  0.005  0.196  0.305  0.245  0.249
  0.015  0.065  0.102  0.735  0.083
  0.735  0.001  0.123  0.015  0.126
  0.245  0.004  0.369  0.005  0.377
    occupations:
  0.943 -0.010  0.006  0.003 -0.005
 -0.010  0.958  0.005 -0.000  0.005
  0.006  0.005  0.964  0.005 -0.000
  0.003 -0.000  0.005  0.942 -0.012
 -0.005  0.005 -0.000 -0.012  0.955
atomic mag. moment =  -0.46376
N of occupied +U levels =   18.151896
 --- exit write_ns ---
 --- in v_hubbard ---
Hubbard energy    0.2340
 -------

     total cpu time spent up to now is        9.4 secs

     total energy              =    -366.02269513 Ry
     estimated scf accuracy    <       0.00034206 Ry

     total magnetization       =    -0.10 Bohr mag/cell
     absolute magnetization    =     0.98 Bohr mag/cell

     iteration #  9     ecut=    40.00 Ry     beta= 0.70
     Davidson diagonalization with overlap
     ethr =  1.71E-06,  avg # of iterations =  1.2
 --- enter write_ns ---
 LDA+U parameters:
U( 1)     =  4.00000000
U( 2)     =  4.00000000
atom    1   Tr[ns(na)] (up, down, total) =   4.72513  4.36778  9.09291
   spin  1
    eigenvalues: 
  0.920  0.924  0.950  0.965  0.967
    eigenvectors:
  0.000  0.777  0.101  0.000  0.123
  0.012  0.166  0.318  0.238  0.266
  0.037  0.055  0.106  0.713  0.089
  0.713  0.000  0.119  0.037  0.131
  0.238  0.001  0.356  0.012  0.392
    occupations:
  0.932 -0.012  0.007  0.003 -0.005
 -0.012  0.953  0.005  0.001  0.008
  0.007  0.005  0.959  0.009  0.001
  0.003  0.001  0.009  0.931 -0.016
 -0.005  0.008  0.001 -0.016  0.950
   spin  2
    eigenvalues: 
  0.779  0.832  0.858  0.949  0.949
    eigenvectors:
  0.012  0.743  0.000  0.246  0.000
  0.146  0.123  0.210  0.481  0.040
  0.049  0.041  0.631  0.160  0.119
  0.198  0.023  0.119  0.028  0.631
  0.595  0.070  0.040  0.085  0.210
    occupations:
  0.860  0.042 -0.024 -0.007  0.012
  0.042  0.891 -0.010 -0.008  0.048
 -0.024 -0.010  0.879  0.038 -0.008
 -0.007 -0.008  0.038  0.902  0.057
  0.012  0.048 -0.008  0.057  0.836
atomic mag. moment =   0.35735
atom    2   Tr[ns(na)] (up, down, total) =   4.29449  4.76357  9.05806
   spin  1
    eigenvalues: 
  0.735  0.826  0.841  0.946  0.947
    eigenvectors:
  0.047  0.738  0.000  0.215  0.000
  0.179  0.075  0.202  0.496  0.048
  0.060  0.025  0.606  0.165  0.144
  0.179  0.040  0.144  0.031  0.606
  0.536  0.121  0.048  0.093  0.202
    occupations:
  0.847  0.047 -0.027 -0.002  0.003
  0.047  0.878 -0.010 -0.013  0.064
 -0.027 -0.010  0.867  0.049 -0.013
 -0.002 -0.013  0.049  0.889  0.065
  0.003  0.064 -0.013  0.065  0.814
   spin  2
    eigenvalues: 
  0.934  0.935  0.957  0.968  0.969
    eigenvectors:
  0.000  0.745  0.109  0.000  0.146
  0.008  0.190  0.302  0.242  0.259
  0.023  0.063  0.101  0.727  0.086
  0.727  0.001  0.122  0.023  0.127
  0.242  0.002  0.366  0.008  0.382
    occupations:
  0.943 -0.011  0.006  0.002 -0.004
 -0.011  0.959  0.005  0.000  0.005
  0.006  0.005  0.964  0.005  0.000
  0.002  0.000  0.005  0.942 -0.012
 -0.004  0.005  0.000 -0.012  0.956
atomic mag. moment =  -0.46908
N of occupied +U levels =   18.150974
 --- exit write_ns ---
 --- in v_hubbard ---
Hubbard energy    0.2331
 -------

     total cpu time spent up to now is       10.3 secs

     total energy              =    -366.02285743 Ry
     estimated scf accuracy    <       0.00038907 Ry

     total magnetization       =    -0.12 Bohr mag/cell
     absolute magnetization    =     0.96 Bohr mag/cell

     iteration # 10     ecut=    40.00 Ry     beta= 0.70
     Davidson diagonalization with overlap
     ethr =  1.71E-06,  avg # of iterations =  1.1
 --- enter write_ns ---
 LDA+U parameters:
U( 1)     =  4.00000000
U( 2)     =  4.00000000
atom    1   Tr[ns(na)] (up, down, total) =   4.71375  4.38307  9.09681
   spin  1
    eigenvalues: 
  0.914  0.920  0.951  0.963  0.966
    eigenvectors:
  0.000  0.808  0.099  0.000  0.093
  0.019  0.144  0.344  0.231  0.262
  0.056  0.048  0.115  0.694  0.087
  0.694  0.000  0.110  0.056  0.139
  0.231  0.000  0.331  0.019  0.418
    occupations:
  0.927 -0.013  0.008  0.002 -0.003
 -0.013  0.953  0.004  0.003  0.008
  0.008  0.004  0.957  0.011  0.003
  0.002  0.003  0.011  0.928 -0.018
 -0.003  0.008  0.003 -0.018  0.949
   spin  2
    eigenvalues: 
  0.768  0.836  0.876  0.950  0.952
    eigenvectors:
  0.015  0.724  0.000  0.262  0.000
  0.148  0.129  0.215  0.473  0.035
  0.049  0.043  0.645  0.158  0.105
  0.197  0.026  0.105  0.027  0.645
  0.591  0.078  0.035  0.081  0.215
    occupations:
  0.865  0.043 -0.025 -0.006  0.010
  0.043  0.893 -0.003 -0.013  0.049
 -0.025 -0.003  0.889  0.034 -0.013
 -0.006 -0.013  0.034  0.905  0.063
  0.010  0.049 -0.013  0.063  0.832
atomic mag. moment =   0.33068
atom    2   Tr[ns(na)] (up, down, total) =   4.28469  4.76754  9.05223
   spin  1
    eigenvalues: 
  0.710  0.828  0.853  0.946  0.947
    eigenvectors:
  0.059  0.721  0.000  0.221  0.000
  0.181  0.072  0.204  0.497  0.046
  0.060  0.024  0.611  0.166  0.139
  0.175  0.046  0.139  0.029  0.611
  0.525  0.137  0.046  0.088  0.204
    occupations:
  0.847  0.051 -0.030  0.002 -0.004
  0.051  0.876 -0.003 -0.019  0.070
 -0.030 -0.003  0.872  0.048 -0.019
  0.002 -0.019  0.048  0.887  0.074
 -0.004  0.070 -0.019  0.074  0.802
   spin  2
    eigenvalues: 
  0.934  0.935  0.961  0.968  0.969
    eigenvectors:
  0.000  0.758  0.119  0.000  0.122
  0.012  0.181  0.297  0.238  0.272
  0.035  0.060  0.099  0.715  0.091
  0.715  0.000  0.121  0.035  0.129
  0.238  0.000  0.364  0.012  0.386
    occupations:
  0.943 -0.011  0.006  0.001 -0.002
 -0.011  0.960  0.004  0.001  0.005
  0.006  0.004  0.964  0.006  0.001
  0.001  0.001  0.006  0.943 -0.013
 -0.002  0.005  0.001 -0.013  0.958
atomic mag. moment =  -0.48285
N of occupied +U levels =   18.149043
 --- exit write_ns ---
 --- in v_hubbard ---
Hubbard energy    0.2302
 -------

     total cpu time spent up to now is       11.1 secs

     total energy              =    -366.02286601 Ry
     estimated scf accuracy    <       0.00047218 Ry

     total magnetization       =    -0.16 Bohr mag/cell
     absolute magnetization    =     0.95 Bohr mag/cell

     iteration # 11     ecut=    40.00 Ry     beta= 0.70
     Davidson diagonalization with overlap
     ethr =  1.71E-06,  avg # of iterations =  1.2
 --- enter write_ns ---
 LDA+U parameters:
U( 1)     =  4.00000000
U( 2)     =  4.00000000
atom    1   Tr[ns(na)] (up, down, total) =   4.69127  4.40719  9.09846
   spin  1
    eigenvalues: 
  0.903  0.911  0.952  0.961  0.965
    eigenvectors:
  0.000  0.849  0.096  0.000  0.055
  0.028  0.113  0.397  0.222  0.240
  0.084  0.038  0.132  0.666  0.080
  0.666  0.000  0.094  0.084  0.156
  0.222  0.000  0.281  0.028  0.469
    occupations:
  0.918 -0.014  0.008  0.001 -0.002
 -0.014  0.951  0.002  0.006  0.009
  0.008  0.002  0.953  0.015  0.006
  0.001  0.006  0.015  0.922 -0.022
 -0.002  0.009  0.006 -0.022  0.947
   spin  2
    eigenvalues: 
  0.759  0.842  0.898  0.953  0.955
    eigenvectors:
  0.013  0.704  0.000  0.283  0.000
  0.145  0.144  0.220  0.462  0.030
  0.048  0.048  0.661  0.154  0.089
  0.198  0.026  0.089  0.025  0.661
  0.595  0.078  0.030  0.076  0.220
    occupations:
  0.872  0.044 -0.025 -0.005  0.009
  0.044  0.897  0.004 -0.018  0.050
 -0.025  0.004  0.902  0.029 -0.018
 -0.005 -0.018  0.029  0.908  0.069
  0.009  0.050 -0.018  0.069  0.828
atomic mag. moment =   0.28408
atom    2   Tr[ns(na)] (up, down, total) =   4.26674  4.77764  9.04438
   spin  1
    eigenvalues: 
  0.670  0.831  0.867  0.949  0.949
    eigenvectors:
  0.078  0.696  0.000  0.227  0.000
  0.183  0.068  0.206  0.499  0.044
  0.061  0.023  0.618  0.166  0.132
  0.169  0.054  0.132  0.027  0.618
  0.508  0.161  0.044  0.081  0.206
    occupations:
  0.845  0.059 -0.034  0.009 -0.016
  0.059  0.873  0.005 -0.028  0.081
 -0.034  0.005  0.879  0.048 -0.028
  0.009 -0.028  0.048  0.885  0.087
 -0.016  0.081 -0.028  0.087  0.785
   spin  2
    eigenvalues: 
  0.937  0.937  0.965  0.968  0.970
    eigenvectors:
  0.000  0.763  0.142  0.000  0.095
  0.015  0.177  0.305  0.235  0.269
  0.046  0.059  0.102  0.704  0.090
  0.704  0.000  0.113  0.046  0.137
  0.235  0.001  0.339  0.015  0.410
    occupations:
  0.944 -0.011  0.006  0.000 -0.000
 -0.011  0.962  0.003  0.002  0.004
  0.006  0.003  0.965  0.006  0.002
  0.000  0.002  0.006  0.946 -0.013
 -0.000  0.004  0.002 -0.013  0.961
atomic mag. moment =  -0.51090
N of occupied +U levels =   18.142840
 --- exit write_ns ---
 --- in v_hubbard ---
Hubbard energy    0.2305
 -------

     total cpu time spent up to now is       12.0 secs

     total energy              =    -366.02354666 Ry
     estimated scf accuracy    <       0.00031813 Ry

     total magnetization       =    -0.24 Bohr mag/cell
     absolute magnetization    =     0.93 Bohr mag/cell

     iteration # 12     ecut=    40.00 Ry     beta= 0.70
     Davidson diagonalization with overlap
     ethr =  1.59E-06,  avg # of iterations =  1.1
 --- enter write_ns ---
 LDA+U parameters:
U( 1)     =  4.00000000
U( 2)     =  4.00000000
atom    1   Tr[ns(na)] (up, down, total) =   4.68825  4.41378  9.10203
   spin  1
    eigenvalues: 
  0.902  0.910  0.952  0.960  0.964
    eigenvectors:
  0.000  0.853  0.093  0.000  0.054
  0.028  0.110  0.398  0.222  0.242
  0.085  0.037  0.133  0.665  0.081
  0.665  0.000  0.094  0.085  0.156
  0.222  0.000  0.282  0.028  0.468
    occupations:
  0.917 -0.014  0.008  0.001 -0.002
 -0.014  0.951  0.002  0.006  0.009
  0.008  0.002  0.953  0.015  0.006
  0.001  0.006  0.015  0.921 -0.022
 -0.002  0.009  0.006 -0.022  0.947
   spin  2
    eigenvalues: 
  0.763  0.844  0.898  0.953  0.955
    eigenvectors:
  0.011  0.705  0.000  0.284  0.000
  0.142  0.147  0.220  0.461  0.030
  0.047  0.049  0.660  0.154  0.090
  0.200  0.025  0.090  0.025  0.660
  0.599  0.075  0.030  0.076  0.220
    occupations:
  0.874  0.043 -0.025 -0.005  0.009
  0.043  0.898  0.004 -0.018  0.049
 -0.025  0.004  0.903  0.028 -0.018
 -0.005 -0.018  0.028  0.909  0.068
  0.009  0.049 -0.018  0.068  0.830
atomic mag. moment =   0.27446
atom    2   Tr[ns(na)] (up, down, total) =   4.26175  4.78034  9.04209
   spin  1
    eigenvalues: 
  0.667  0.831  0.866  0.948  0.949
    eigenvectors:
  0.081  0.694  0.000  0.224  0.000
  0.184  0.065  0.205  0.500  0.045
  0.061  0.022  0.616  0.167  0.134
  0.168  0.055  0.134  0.027  0.616
  0.505  0.164  0.045  0.081  0.205
    occupations:
  0.844  0.059 -0.034  0.010 -0.017
  0.059  0.872  0.005 -0.029  0.082
 -0.034  0.005  0.878  0.048 -0.029
  0.010 -0.029  0.048  0.884  0.087
 -0.017  0.082 -0.029  0.087  0.784
   spin  2
    eigenvalues: 
  0.938  0.938  0.966  0.968  0.970
    eigenvectors:
  0.000  0.761  0.143  0.000  0.096
  0.015  0.179  0.298  0.235  0.273
  0.045  0.060  0.099  0.705  0.091
  0.705  0.000  0.115  0.045  0.135
  0.235  0.001  0.344  0.015  0.405
    occupations:
  0.945 -0.011  0.006  0.000 -0.000
 -0.011  0.962  0.003  0.002  0.004
  0.006  0.003  0.965  0.006  0.002
  0.000  0.002  0.006  0.947 -0.012
 -0.000  0.004  0.002 -0.012  0.961
atomic mag. moment =  -0.51858
N of occupied +U levels =   18.144113
 --- exit write_ns ---
 --- in v_hubbard ---
Hubbard energy    0.2316
 -------

     total cpu time spent up to now is       12.8 secs

     total energy              =    -366.02337189 Ry
     estimated scf accuracy    <       0.00041620 Ry

     total magnetization       =    -0.26 Bohr mag/cell
     absolute magnetization    =     0.92 Bohr mag/cell

     iteration # 13     ecut=    40.00 Ry     beta= 0.70
     Davidson diagonalization with overlap
     ethr =  1.59E-06,  avg # of iterations =  1.2
 --- enter write_ns ---
 LDA+U parameters:
U( 1)     =  4.00000000
U( 2)     =  4.00000000
atom    1   Tr[ns(na)] (up, down, total) =   4.69155  4.40942  9.10097
   spin  1
    eigenvalues: 
  0.904  0.912  0.950  0.961  0.964
    eigenvectors:
  0.000  0.842  0.091  0.000  0.066
  0.024  0.118  0.380  0.226  0.252
  0.073  0.039  0.127  0.677  0.084
  0.677  0.000  0.100  0.073  0.150
  0.226  0.000  0.301  0.024  0.449
    occupations:
  0.919 -0.014  0.008  0.002 -0.003
 -0.014  0.951  0.003  0.005  0.009
  0.008  0.003  0.954  0.014  0.005
  0.002  0.005  0.014  0.922 -0.021
 -0.003  0.009  0.005 -0.021  0.947
   spin  2
    eigenvalues: 
  0.770  0.842  0.891  0.952  0.954
    eigenvectors:
  0.009  0.716  0.000  0.276  0.000
  0.140  0.146  0.218  0.465  0.032
  0.047  0.049  0.653  0.155  0.097
  0.201  0.023  0.097  0.026  0.653
  0.604  0.068  0.032  0.079  0.218
    occupations:
  0.872  0.042 -0.024 -0.006  0.011
  0.042  0.897  0.001 -0.015  0.047
 -0.024  0.001  0.899  0.030 -0.015
 -0.006 -0.015  0.030  0.908  0.065
  0.011  0.047 -0.015  0.065  0.833
atomic mag. moment =   0.28213
atom    2   Tr[ns(na)] (up, down, total) =   4.26424  4.77996  9.04420
   spin  1
    eigenvalues: 
  0.680  0.830  0.859  0.948  0.948
    eigenvectors:
  0.079  0.702  0.000  0.219  0.000
  0.185  0.063  0.204  0.502  0.046
  0.062  0.021  0.611  0.167  0.139
  0.169  0.053  0.139  0.028  0.611
  0.506  0.160  0.046  0.084  0.204
    occupations:
  0.844  0.057 -0.033  0.008 -0.014
  0.057  0.873  0.002 -0.025  0.079
 -0.033  0.002  0.875  0.049 -0.025
  0.008 -0.025  0.049  0.884  0.082
 -0.014  0.079 -0.025  0.082  0.789
   spin  2
    eigenvalues: 
  0.938  0.939  0.964  0.969  0.970
    eigenvectors:
  0.000  0.750  0.135  0.000  0.114
  0.012  0.187  0.278  0.238  0.285
  0.037  0.062  0.093  0.713  0.095
  0.713  0.000  0.123  0.037  0.126
  0.238  0.000  0.370  0.012  0.379
    occupations:
  0.946 -0.011  0.006  0.000 -0.001
 -0.011  0.962  0.003  0.002  0.004
  0.006  0.003  0.965  0.006  0.002
  0.000  0.002  0.006  0.947 -0.012
 -0.001  0.004  0.002 -0.012  0.960
atomic mag. moment =  -0.51573
N of occupied +U levels =   18.145170
 --- exit write_ns ---
 --- in v_hubbard ---
Hubbard energy    0.2336
 -------

     total cpu time spent up to now is       13.7 secs

     total energy              =    -366.02224608 Ry
     estimated scf accuracy    <       0.00041392 Ry

     total magnetization       =    -0.25 Bohr mag/cell
     absolute magnetization    =     0.93 Bohr mag/cell

     iteration # 14     ecut=    40.00 Ry     beta= 0.70
     Davidson diagonalization with overlap
     ethr =  1.59E-06,  avg # of iterations =  1.1
 --- enter write_ns ---
 LDA+U parameters:
U( 1)     =  4.00000000
U( 2)     =  4.00000000
atom    1   Tr[ns(na)] (up, down, total) =   4.71141  4.37750  9.08891
   spin  1
    eigenvalues: 
  0.915  0.920  0.948  0.963  0.966
    eigenvectors:
  0.000  0.801  0.090  0.000  0.109
  0.014  0.148  0.338  0.236  0.264
  0.042  0.049  0.113  0.708  0.088
  0.708  0.000  0.115  0.042  0.135
  0.236  0.001  0.344  0.014  0.404
    occupations:
  0.927 -0.013  0.007  0.003 -0.005
 -0.013  0.952  0.005  0.002  0.008
  0.007  0.005  0.957  0.010  0.002
  0.003  0.002  0.010  0.927 -0.017
 -0.005  0.008  0.002 -0.017  0.948
   spin  2
    eigenvalues: 
  0.782  0.834  0.862  0.949  0.950
    eigenvectors:
  0.005  0.742  0.000  0.253  0.000
  0.135  0.139  0.212  0.476  0.038
  0.045  0.046  0.635  0.159  0.115
  0.204  0.018  0.115  0.028  0.635
  0.611  0.055  0.038  0.084  0.212
    occupations:
  0.863  0.041 -0.024 -0.008  0.014
  0.041  0.892 -0.010 -0.008  0.046
 -0.024 -0.010  0.881  0.037 -0.008
 -0.008 -0.008  0.037  0.904  0.057
  0.014  0.046 -0.008  0.057  0.837
atomic mag. moment =   0.33391
atom    2   Tr[ns(na)] (up, down, total) =   4.28546  4.77465  9.06011
   spin  1
    eigenvalues: 
  0.722  0.827  0.843  0.947  0.947
    eigenvectors:
  0.064  0.724  0.000  0.212  0.000
  0.182  0.066  0.202  0.502  0.048
  0.061  0.022  0.605  0.167  0.145
  0.173  0.047  0.145  0.030  0.605
  0.520  0.141  0.048  0.089  0.202
    occupations:
  0.845  0.051 -0.029  0.001 -0.002
  0.051  0.877 -0.008 -0.015  0.068
 -0.029 -0.008  0.868  0.050 -0.015
  0.001 -0.015  0.050  0.887  0.069
 -0.002  0.068 -0.015  0.069  0.808
   spin  2
    eigenvalues: 
  0.938  0.938  0.960  0.969  0.970
    eigenvectors:
  0.000  0.726  0.124  0.000  0.150
  0.006  0.205  0.279  0.244  0.266
  0.019  0.068  0.093  0.731  0.089
  0.731  0.000  0.126  0.019  0.124
  0.244  0.001  0.378  0.006  0.372
    occupations:
  0.946 -0.010  0.006  0.002 -0.003
 -0.010  0.960  0.005  0.000  0.004
  0.006  0.005  0.965  0.005  0.000
  0.002  0.000  0.005  0.945 -0.011
 -0.003  0.004  0.000 -0.011  0.958
atomic mag. moment =  -0.48919
N of occupied +U levels =   18.149018
 --- exit write_ns ---
 --- in v_hubbard ---
Hubbard energy    0.2318
 -------

     total cpu time spent up to now is       14.5 secs

     total energy              =    -366.02283343 Ry
     estimated scf accuracy    <       0.00017589 Ry

     total magnetization       =    -0.17 Bohr mag/cell
     absolute magnetization    =     0.96 Bohr mag/cell

     iteration # 15     ecut=    40.00 Ry     beta= 0.70
     Davidson diagonalization with overlap
     ethr =  8.79E-07,  avg # of iterations =  1.2
 --- enter write_ns ---
 LDA+U parameters:
U( 1)     =  4.00000000
U( 2)     =  4.00000000
atom    1   Tr[ns(na)] (up, down, total) =   4.69980  4.39556  9.09536
   spin  1
    eigenvalues: 
  0.908  0.914  0.951  0.962  0.965
    eigenvectors:
  0.000  0.832  0.095  0.000  0.073
  0.022  0.126  0.370  0.228  0.254
  0.067  0.042  0.123  0.683  0.085
  0.683  0.000  0.103  0.067  0.147
  0.228  0.000  0.308  0.022  0.442
    occupations:
  0.922 -0.014  0.008  0.002 -0.003
 -0.014  0.951  0.003  0.004  0.008
  0.008  0.003  0.955  0.013  0.004
  0.002  0.004  0.013  0.924 -0.020
 -0.003  0.008  0.004 -0.020  0.948
   spin  2
    eigenvalues: 
  0.765  0.840  0.886  0.952  0.953
    eigenvectors:
  0.013  0.717  0.000  0.270  0.000
  0.146  0.136  0.217  0.468  0.033
  0.049  0.045  0.650  0.156  0.100
  0.198  0.026  0.100  0.026  0.650
  0.594  0.077  0.033  0.079  0.217
    occupations:
  0.869  0.043 -0.025 -0.006  0.010
  0.043  0.895  0.000 -0.015  0.049
 -0.025  0.000  0.895  0.032 -0.015
 -0.006 -0.015  0.032  0.906  0.066
  0.010  0.049 -0.015  0.066  0.830
atomic mag. moment =   0.30423
atom    2   Tr[ns(na)] (up, down, total) =   4.27410  4.77432  9.04842
   spin  1
    eigenvalues: 
  0.688  0.830  0.859  0.948  0.949
    eigenvectors:
  0.072  0.706  0.000  0.222  0.000
  0.183  0.068  0.204  0.500  0.046
  0.061  0.023  0.613  0.167  0.137
  0.171  0.051  0.137  0.028  0.613
  0.513  0.153  0.046  0.084  0.204
    occupations:
  0.846  0.056 -0.032  0.006 -0.011
  0.056  0.874  0.001 -0.024  0.076
 -0.032  0.001  0.875  0.048 -0.024
  0.006 -0.024  0.048  0.886  0.081
 -0.011  0.076 -0.024  0.081  0.793
   spin  2
    eigenvalues: 
  0.936  0.937  0.963  0.968  0.970
    eigenvectors:
  0.000  0.755  0.132  0.000  0.113
  0.013  0.184  0.289  0.237  0.278
  0.038  0.061  0.096  0.712  0.093
  0.712  0.000  0.121  0.038  0.129
  0.237  0.000  0.362  0.013  0.388
    occupations:
  0.944 -0.011  0.006  0.001 -0.001
 -0.011  0.961  0.003  0.002  0.004
  0.006  0.003  0.965  0.006  0.002
  0.001  0.002  0.006  0.945 -0.013
 -0.001  0.004  0.002 -0.013  0.959
atomic mag. moment =  -0.50022
N of occupied +U levels =   18.143777
 --- exit write_ns ---
 --- in v_hubbard ---
Hubbard energy    0.2255
 -------

     total cpu time spent up to now is       15.3 secs

     total energy              =    -366.02149207 Ry
     estimated scf accuracy    <       0.00030023 Ry

     total magnetization       =    -0.21 Bohr mag/cell
     absolute magnetization    =     0.94 Bohr mag/cell

     iteration # 16     ecut=    40.00 Ry     beta= 0.70
     Davidson diagonalization with overlap
     ethr =  8.79E-07,  avg # of iterations =  2.0
 --- enter write_ns ---
 LDA+U parameters:
U( 1)     =  4.00000000
U( 2)     =  4.00000000
atom    1   Tr[ns(na)] (up, down, total) =   4.70214  4.37741  9.07955
   spin  1
    eigenvalues: 
  0.903  0.913  0.960  0.961  0.966
    eigenvectors:
  0.000  0.870  0.116  0.000  0.014
  0.041  0.095  0.502  0.209  0.154
  0.124  0.032  0.167  0.626  0.051
  0.626  0.001  0.054  0.124  0.195
  0.209  0.003  0.161  0.041  0.586
    occupations:
  0.919 -0.014  0.008 -0.001  0.002
 -0.014  0.954 -0.001  0.008  0.008
  0.008 -0.001  0.953  0.017  0.008
 -0.001  0.008  0.017  0.925 -0.022
  0.002  0.008  0.008 -0.022  0.951
   spin  2
    eigenvalues: 
  0.707  0.851  0.908  0.955  0.957
    eigenvectors:
  0.038  0.673  0.000  0.289  0.000
  0.166  0.122  0.223  0.462  0.027
  0.055  0.041  0.670  0.154  0.080
  0.185  0.041  0.080  0.024  0.670
  0.555  0.124  0.027  0.071  0.223
    occupations:
  0.876  0.049 -0.029  0.003 -0.006
  0.049  0.891  0.013 -0.030  0.066
 -0.029  0.013  0.905  0.032 -0.030
  0.003 -0.030  0.032  0.902  0.085
 -0.006  0.066 -0.030  0.085  0.804
atomic mag. moment =   0.32473
atom    2   Tr[ns(na)] (up, down, total) =   4.29298  4.76051  9.05348
   spin  1
    eigenvalues: 
  0.641  0.843  0.902  0.953  0.955
    eigenvectors:
  0.070  0.679  0.000  0.251  0.000
  0.178  0.084  0.213  0.488  0.037
  0.059  0.028  0.640  0.163  0.110
  0.173  0.052  0.110  0.025  0.640
  0.519  0.157  0.037  0.074  0.213
    occupations:
  0.856  0.061 -0.035  0.014 -0.024
  0.061  0.877  0.019 -0.039  0.087
 -0.035  0.019  0.899  0.042 -0.039
  0.014 -0.039  0.042  0.889  0.101
 -0.024  0.087 -0.039  0.101  0.772
   spin  2
    eigenvalues: 
  0.927  0.931  0.966  0.967  0.970
    eigenvectors:
  0.000  0.826  0.000  0.172  0.003
  0.033  0.127  0.217  0.565  0.058
  0.100  0.042  0.650  0.188  0.019
  0.650  0.001  0.100  0.019  0.230
  0.217  0.004  0.033  0.056  0.690
    occupations:
  0.937 -0.012  0.007 -0.001  0.002
 -0.012  0.961  0.000  0.005  0.005
  0.007  0.000  0.961  0.011  0.005
 -0.001  0.005  0.011  0.941 -0.016
  0.002  0.005  0.005 -0.016  0.960
atomic mag. moment =  -0.46753
N of occupied +U levels =   18.133036
 --- exit write_ns ---
 --- in v_hubbard ---
Hubbard energy    0.2296
 -------

     total cpu time spent up to now is       16.4 secs

     total energy              =    -366.02301399 Ry
     estimated scf accuracy    <       0.00006131 Ry

     total magnetization       =    -0.15 Bohr mag/cell
     absolute magnetization    =     0.91 Bohr mag/cell

     iteration # 17     ecut=    40.00 Ry     beta= 0.70
     Davidson diagonalization with overlap
     ethr =  3.07E-07,  avg # of iterations =  2.0
 --- enter write_ns ---
 LDA+U parameters:
U( 1)     =  4.00000000
U( 2)     =  4.00000000
atom    1   Tr[ns(na)] (up, down, total) =   4.71462  4.36802  9.08264
   spin  1
    eigenvalues: 
  0.911  0.917  0.958  0.963  0.966
    eigenvectors:
  0.000  0.843  0.114  0.000  0.043
  0.029  0.117  0.402  0.221  0.231
  0.088  0.039  0.134  0.662  0.077
  0.662  0.000  0.087  0.088  0.162
  0.221  0.001  0.262  0.029  0.487
    occupations:
  0.924 -0.014  0.008  0.000 -0.000
 -0.014  0.955  0.001  0.006  0.007
  0.008  0.001  0.956  0.014  0.006
  0.000  0.006  0.014  0.928 -0.020
 -0.000  0.007  0.006 -0.020  0.951
   spin  2
    eigenvalues: 
  0.721  0.845  0.894  0.953  0.955
    eigenvectors:
  0.038  0.692  0.000  0.269  0.000
  0.168  0.110  0.218  0.472  0.032
  0.056  0.037  0.653  0.157  0.097
  0.185  0.040  0.097  0.025  0.653
  0.554  0.120  0.032  0.076  0.218
    occupations:
  0.869  0.048 -0.028  0.001 -0.002
  0.048  0.889  0.007 -0.025  0.063
 -0.028  0.007  0.898  0.035 -0.025
  0.001 -0.025  0.035  0.901  0.079
 -0.002  0.063 -0.025  0.079  0.810
atomic mag. moment =   0.34660
atom    2   Tr[ns(na)] (up, down, total) =   4.30140  4.75555  9.05696
   spin  1
    eigenvalues: 
  0.673  0.838  0.887  0.951  0.953
    eigenvectors:
  0.061  0.697  0.000  0.242  0.000
  0.177  0.083  0.210  0.490  0.040
  0.059  0.028  0.630  0.163  0.120
  0.176  0.048  0.120  0.026  0.630
  0.527  0.144  0.040  0.079  0.210
    occupations:
  0.855  0.056 -0.032  0.008 -0.014
  0.056  0.879  0.011 -0.032  0.079
 -0.032  0.011  0.892  0.042 -0.032
  0.008 -0.032  0.042  0.890  0.090
 -0.014  0.079 -0.032  0.090  0.786
   spin  2
    eigenvalues: 
  0.927  0.930  0.964  0.966  0.969
    eigenvectors:
  0.000  0.810  0.142  0.000  0.048
  0.026  0.141  0.399  0.224  0.210
  0.077  0.047  0.133  0.673  0.070
  0.673  0.000  0.082  0.077  0.168
  0.224  0.001  0.245  0.026  0.504
    occupations:
  0.937 -0.012  0.007 -0.000  0.000
 -0.012  0.960  0.001  0.004  0.005
  0.007  0.001  0.961  0.010  0.004
 -0.000  0.004  0.010  0.940 -0.016
  0.000  0.005  0.004 -0.016  0.958
atomic mag. moment =  -0.45415
N of occupied +U levels =   18.139600
 --- exit write_ns ---
 --- in v_hubbard ---
Hubbard energy    0.2282
 -------

     total cpu time spent up to now is       17.4 secs

     total energy              =    -366.02344381 Ry
     estimated scf accuracy    <       0.00006598 Ry

     total magnetization       =    -0.11 Bohr mag/cell
     absolute magnetization    =     0.92 Bohr mag/cell

     iteration # 18     ecut=    40.00 Ry     beta= 0.70
     Davidson diagonalization with overlap
     ethr =  3.07E-07,  avg # of iterations =  1.0
 --- enter write_ns ---
 LDA+U parameters:
U( 1)     =  4.00000000
U( 2)     =  4.00000000
atom    1   Tr[ns(na)] (up, down, total) =   4.71195  4.36775  9.07969
   spin  1
    eigenvalues: 
  0.909  0.916  0.959  0.962  0.966
    eigenvectors:
  0.000  0.856  0.118  0.000  0.026
  0.034  0.106  0.446  0.216  0.199
  0.103  0.035  0.149  0.647  0.066
  0.647  0.001  0.072  0.103  0.177
  0.216  0.002  0.216  0.034  0.532
    occupations:
  0.922 -0.014  0.008 -0.001  0.001
 -0.014  0.955  0.000  0.006  0.007
  0.008  0.000  0.955  0.015  0.006
 -0.001  0.006  0.015  0.928 -0.021
  0.001  0.007  0.006 -0.021  0.952
   spin  2
    eigenvalues: 
  0.709  0.849  0.901  0.954  0.955
    eigenvectors:
  0.043  0.686  0.000  0.271  0.000
  0.170  0.108  0.217  0.472  0.033
  0.057  0.036  0.652  0.157  0.098
  0.183  0.042  0.098  0.025  0.652
  0.548  0.127  0.033  0.075  0.217
    occupations:
  0.871  0.049 -0.029  0.004 -0.007
  0.049  0.889  0.011 -0.028  0.067
 -0.029  0.011  0.902  0.035 -0.028
  0.004 -0.028  0.035  0.901  0.083
 -0.007  0.067 -0.028  0.083  0.805
atomic mag. moment =   0.34420
atom    2   Tr[ns(na)] (up, down, total) =   4.30364  4.75384  9.05748
   spin  1
    eigenvalues: 
  0.661  0.842  0.896  0.952  0.954
    eigenvectors:
  0.064  0.692  0.000  0.244  0.000
  0.177  0.083  0.211  0.490  0.039
  0.059  0.028  0.634  0.163  0.116
  0.175  0.049  0.116  0.026  0.634
  0.525  0.148  0.039  0.077  0.211
    occupations:
  0.857  0.057 -0.033  0.010 -0.018
  0.057  0.879  0.015 -0.035  0.082
 -0.033  0.015  0.896  0.041 -0.035
  0.010 -0.035  0.041  0.890  0.095
 -0.018  0.082 -0.035  0.095  0.781
   spin  2
    eigenvalues: 
  0.925  0.930  0.965  0.966  0.969
    eigenvectors:
  0.000  0.824  0.152  0.000  0.023
  0.030  0.129  0.467  0.220  0.154
  0.091  0.043  0.156  0.659  0.051
  0.659  0.001  0.056  0.091  0.193
  0.220  0.002  0.169  0.030  0.579
    occupations:
  0.936 -0.012  0.007 -0.001  0.001
 -0.012  0.960  0.001  0.005  0.005
  0.007  0.001  0.961  0.011  0.005
 -0.001  0.005  0.011  0.939 -0.016
  0.001  0.005  0.005 -0.016  0.958
atomic mag. moment =  -0.45020
N of occupied +U levels =   18.137179
 --- exit write_ns ---
 --- in v_hubbard ---
Hubbard energy    0.2270
 -------

     total cpu time spent up to now is       18.2 secs

     total energy              =    -366.02348392 Ry
     estimated scf accuracy    <       0.00001404 Ry

     total magnetization       =    -0.11 Bohr mag/cell
     absolute magnetization    =     0.91 Bohr mag/cell

     iteration # 19     ecut=    40.00 Ry     beta= 0.70
     Davidson diagonalization with overlap
     ethr =  7.02E-08,  avg # of iterations =  2.0
 --- enter write_ns ---
 LDA+U parameters:
U( 1)     =  4.00000000
U( 2)     =  4.00000000
atom    1   Tr[ns(na)] (up, down, total) =   4.71061  4.36687  9.07748
   spin  1
    eigenvalues: 
  0.908  0.915  0.960  0.962  0.966
    eigenvectors:
  0.000  0.866  0.122  0.000  0.012
  0.039  0.097  0.501  0.211  0.153
  0.116  0.032  0.167  0.634  0.051
  0.634  0.001  0.053  0.116  0.196
  0.211  0.004  0.158  0.039  0.589
    occupations:
  0.921 -0.013  0.008 -0.001  0.002
 -0.013  0.955 -0.001  0.007  0.007
  0.008 -0.001  0.954  0.015  0.007
 -0.001  0.007  0.015  0.928 -0.021
[...]
    34.3057  34.7327

     occupation numbers 
     1.0000   1.0000   1.0000   1.0000   1.0000   1.0000   1.0000   1.0000
     1.0000   1.0000   0.9816   0.0000   0.0000   0.0000   0.0000   0.0000
     0.0000   0.0000

          k = 0.4248 0.7380-0.3109 (   592 PWs)   bands (ev):

     8.5030   9.1740   9.5512  10.1621  10.7087  11.3459  11.9396  12.3549
    13.0898  13.3994  14.5549  20.8029  21.6737  25.5912  27.0663  31.1532
    32.5946  35.6223

     occupation numbers 
     1.0000   1.0000   1.0000   1.0000   1.0000   1.0000   1.0000   1.0000
     1.0000   0.9994   0.0000   0.0000   0.0000   0.0000   0.0000   0.0000
     0.0000   0.0000

          k = 0.4261 0.7373 0.1036 (   591 PWs)   bands (ev):

     8.5123   9.1211   9.9023  10.3086  10.5069  11.0177  11.8119  12.3333
    12.5779  13.5029  14.6262  21.3300  22.0659  25.8838  28.2456  28.4909
    30.5527  38.7062

     occupation numbers 
     1.0000   1.0000   1.0000   1.0000   1.0000   1.0000   1.0000   1.0000
     1.0000   0.9853   0.0000   0.0000   0.0000   0.0000   0.0000   0.0000
     0.0000   0.0000

          k = 0.4273 0.7366 0.5182 (   593 PWs)   bands (ev):

     8.5764   9.2457   9.4758   9.8570  10.7329  11.9236  11.9409  12.2554
    13.1108  13.9348  14.8307  19.5636  21.6350  25.9803  26.9139  32.6937
    33.4418  34.1270

     occupation numbers 
     1.0000   1.0000   1.0000   1.0000   1.0000   1.0000   1.0000   1.0000
     1.0000   0.0104   0.0000   0.0000   0.0000   0.0000   0.0000   0.0000
     0.0000   0.0000

          k = 0.4211 0.7402-1.5545 (   591 PWs)   bands (ev):

     9.0176   9.4806   9.7209   9.8764  10.4728  11.0336  12.0131  12.4691
    13.4142  13.6560  17.7638  18.1406  23.0547  24.9929  27.4593  28.9041
    28.9736  31.8032

     occupation numbers 
     1.0000   1.0000   1.0000   1.0000   1.0000   1.0000   1.0000   1.0000
     0.9990   0.7215   0.0000   0.0000   0.0000   0.0000   0.0000   0.0000
     0.0000   0.0000

          k = 0.4224 0.7395-1.1400 (   587 PWs)   bands (ev):

     9.1175   9.6376   9.9158  10.1064  10.4734  10.5428  11.9500  12.3715
    13.0036  13.9002  17.5615  20.5108  23.3408  24.1883  26.2203  27.0176
    27.4973  34.7942

     occupation numbers 
     1.0000   1.0000   1.0000   1.0000   1.0000   1.0000   1.0000   1.0000
     1.0000   0.0255   0.0000   0.0000   0.0000   0.0000   0.0000   0.0000
     0.0000   0.0000

          k = 0.4236 0.7387-0.7254 (   591 PWs)   bands (ev):

     8.7790   9.3493   9.6265   9.6654  10.6243  11.5516  12.1222  12.3704
    13.3203  13.8235  16.1807  18.4276  22.1416  25.3228  28.9848  30.3237
    31.3320  31.6754

     occupation numbers 
     1.0000   1.0000   1.0000   1.0000   1.0000   1.0000   1.0000   1.0000
     1.0000   0.1241   0.0000   0.0000   0.0000   0.0000   0.0000   0.0000
     0.0000   0.0000

          k = 0.4141-1.2224 0.3834 (   595 PWs)   bands (ev):

     8.3854   8.9190   9.2348  10.2734  11.2379  11.5295  12.1634  12.8815
    13.4954  13.7922  16.3658  17.2930  21.2004  27.3865  28.0114  29.7226
    32.1084  33.6984

     occupation numbers 
     1.0000   1.0000   1.0000   1.0000   1.0000   1.0000   1.0000   1.0000
     0.9880   0.2035   0.0000   0.0000   0.0000   0.0000   0.0000   0.0000
     0.0000   0.0000

          k = 0.4153-1.2231 0.7979 (   587 PWs)   bands (ev):

     8.9098   9.3499   9.6775  10.0958  10.7868  11.0988  11.8417  12.5138
    13.0006  13.9843  17.4877  20.8979  22.7600  22.8928  25.4358  28.7297
    28.8162  35.0017

     occupation numbers 
     1.0000   1.0000   1.0000   1.0000   1.0000   1.0000   1.0000   1.0000
     1.0000   0.0024   0.0000   0.0000   0.0000   0.0000   0.0000   0.0000
     0.0000   0.0000

          k = 0.4166-1.2238 1.2125 (   593 PWs)   bands (ev):

     9.0303   9.4796   9.6755   9.8415  10.5512  11.0289  12.0433  12.4265
    13.4237  13.6595  17.7088  18.1899  23.0910  24.9626  27.4534  28.8591
    28.9758  31.8446

     occupation numbers 
     1.0000   1.0000   1.0000   1.0000   1.0000   1.0000   1.0000   1.0000
     0.9987   0.7090   0.0000   0.0000   0.0000   0.0000   0.0000   0.0000
     0.0000   0.0000

          k = 0.4103-1.2202-0.8602 (   589 PWs)   bands (ev):

     8.3116   8.6743   9.2113  10.6424  11.1679  11.4444  12.2495  12.7124
    13.2114  13.9417  14.4691  19.5294  23.4972  24.2484  25.1598  31.7213
    35.4502  36.4425

     occupation numbers 
     1.0000   1.0000   1.0000   1.0000   1.0000   1.0000   1.0000   1.0000
     1.0000   0.0086   0.0000   0.0000   0.0000   0.0000   0.0000   0.0000
     0.0000   0.0000

          k = 0.4116-1.2209-0.4457 (   593 PWs)   bands (ev):

     8.3939   8.9148   9.6720  10.4976  10.8904  11.0858  11.7056  12.5187
    12.7252  13.5201  14.5670  19.3582  24.3864  26.6057  26.9061  27.5985
    32.4010  38.7342

     occupation numbers 
     1.0000   1.0000   1.0000   1.0000   1.0000   1.0000   1.0000   1.0000
     1.0000   0.9772   0.0000   0.0000   0.0000   0.0000   0.0000   0.0000
     0.0000   0.0000

          k = 0.4128-1.2217-0.0311 (   595 PWs)   bands (ev):

     8.4771   9.4101   9.5617   9.8576  10.7183  11.5151  11.9890  12.5647
    13.0576  13.3556  14.6038  18.4221  22.2621  27.9768  29.0568  30.9769
    32.6952  32.8122

     occupation numbers 
     1.0000   1.0000   1.0000   1.0000   1.0000   1.0000   1.0000   1.0000
     1.0000   0.9999   0.0000   0.0000   0.0000   0.0000   0.0000   0.0000
     0.0000   0.0000

          k = 0.4162-0.8303 0.2445 (   605 PWs)   bands (ev):

     8.1900   8.6885   9.5030  10.3963  10.9043  11.7502  11.9079  12.6667
    12.7544  13.4124  13.7001  14.8386  25.9849  30.5537  31.0830  31.6272
    32.5399  36.2691

     occupation numbers 
     1.0000   1.0000   1.0000   1.0000   1.0000   1.0000   1.0000   1.0000
     1.0000   0.9991   0.5511   0.0000   0.0000   0.0000   0.0000   0.0000
     0.0000   0.0000

          k = 0.4175-0.8310 0.6591 (   594 PWs)   bands (ev):

     8.8350   8.9924   9.6064   9.8626  11.0236  11.4000  12.0322  12.3949
    13.1381  14.0736  16.3860  17.7079  23.2980  24.0414  28.7448  30.7675
    32.0750  32.8602

     occupation numbers 
     1.0000   1.0000   1.0000   1.0000   1.0000   1.0000   1.0000   1.0000
     1.0000   0.0001   0.0000   0.0000   0.0000   0.0000   0.0000   0.0000
     0.0000   0.0000

          k = 0.4187-0.8317 1.0736 (   588 PWs)   bands (ev):

     9.1351   9.6133   9.8481  10.0850  10.4855  10.6946  12.0235  12.3227
    12.9264  13.9034  17.4804  20.4893  23.4144  24.1716  26.1797  27.1039
    27.4251  34.7682

     occupation numbers 
     1.0000   1.0000   1.0000   1.0000   1.0000   1.0000   1.0000   1.0000
     1.0000   0.0236   0.0000   0.0000   0.0000   0.0000   0.0000   0.0000
     0.0000   0.0000

          k = 0.4125-0.8281-0.9991 (   597 PWs)   bands (ev):

     8.3636   8.9261   9.6695  10.4412  10.9261  11.1702  11.7064  12.5217
    12.7557  13.5744  14.4128  19.3492  24.3704  26.6037  26.9591  27.5677
    32.3413  38.6891

     occupation numbers 
     1.0000   1.0000   1.0000   1.0000   1.0000   1.0000   1.0000   1.0000
     1.0000   0.9244   0.0000   0.0000   0.0000   0.0000   0.0000   0.0000
     0.0000   0.0000

          k = 0.4137-0.8289-0.5845 (   600 PWs)   bands (ev):

     7.2317   8.7599   9.5421  10.7579  11.3922  11.4441  11.6149  12.0188
    12.8857  12.9846  13.4523  15.7894  24.9231  29.1106  30.6371  33.2760
    37.2279  37.3463

     occupation numbers 
     1.0000   1.0000   1.0000   1.0000   1.0000   1.0000   1.0000   1.0000
     1.0000   1.0000   0.9966   0.0000   0.0000   0.0000   0.0000   0.0000
     0.0000   0.0000

          k = 0.4150-0.8296-0.1700 (   601 PWs)   bands (ev):

     7.4068   8.8477   9.8193  10.3772  10.8443  11.5300  11.8398  12.1547
    12.4851  12.7494  13.1186  14.8690  27.1097  29.7168  32.7299  33.9357
    36.3327  37.0008

     occupation numbers 
     1.0000   1.0000   1.0000   1.0000   1.0000   1.0000   1.0000   1.0000
     1.0000   1.0000   1.0000   0.0000   0.0000   0.0000   0.0000   0.0000
     0.0000   0.0000

          k = 0.4184-0.4382 0.1057 (   596 PWs)   bands (ev):

     7.0566   8.0246   9.9933  10.6481  11.2681  11.5107  11.6478  12.0745
    12.2603  12.6227  12.9995  13.6799  27.7175  31.8226  33.6334  34.3869
    38.3964  40.0950

     occupation numbers 
     1.0000   1.0000   1.0000   1.0000   1.0000   1.0000   1.0000   1.0000
     1.0000   1.0000   1.0000   0.6323   0.0000   0.0000   0.0000   0.0000
     0.0000   0.0000

          k = 0.4196-0.4389 0.5202 (   594 PWs)   bands (ev):

     7.9261   9.3454   9.6369  10.2382  10.6438  11.5404  12.0262  12.5714
    12.7232  12.7935  13.4791  16.4353  25.2910  27.5414  31.7137  32.9411
    34.4926  34.6415

     occupation numbers 
     1.0000   1.0000   1.0000   1.0000   1.0000   1.0000   1.0000   1.0000
     1.0000   1.0000   0.9924   0.0000   0.0000   0.0000   0.0000   0.0000
     0.0000   0.0000

          k = 0.4209-0.4397 0.9347 (   595 PWs)   bands (ev):

     8.7185   9.4124   9.6415   9.7654  10.6064  11.5697  12.1377  12.3744
    13.3629  13.6359  16.1684  18.3735  22.0859  25.2412  28.9336  30.2934
    31.4423  31.8448

     occupation numbers 
     1.0000   1.0000   1.0000   1.0000   1.0000   1.0000   1.0000   1.0000
     0.9999   0.7868   0.0000   0.0000   0.0000   0.0000   0.0000   0.0000
     0.0000   0.0000

          k = 0.4146-0.4361-1.1379 (   595 PWs)   bands (ev):

     8.4578   9.3389   9.5922  10.0266  10.6976  11.5301  11.9939  12.5685
    13.0908  13.3003  14.4868  18.4034  22.1808  27.9262  28.9835  31.0707
    32.6504  32.9354

     occupation numbers 
     1.0000   1.0000   1.0000   1.0000   1.0000   1.0000   1.0000   1.0000
     1.0000   1.0000   0.0000   0.0000   0.0000   0.0000   0.0000   0.0000
     0.0000   0.0000

          k = 0.4159-0.4368-0.7234 (   602 PWs)   bands (ev):

     7.3983   8.8293   9.8186  10.3066  10.9714  11.5694  11.9357  12.1660
    12.5128  12.6327  13.0264  14.8691  27.0952  29.5808  32.7869  33.9201
    36.3984  36.8913

     occupation numbers 
     1.0000   1.0000   1.0000   1.0000   1.0000   1.0000   1.0000   1.0000
     1.0000   1.0000   1.0000   0.0000   0.0000   0.0000   0.0000   0.0000
     0.0000   0.0000

          k = 0.4171-0.4375-0.3089 (   599 PWs)   bands (ev):

     6.9972   7.3984  10.1323  10.9579  11.1949  11.4941  11.6843  12.0419
    12.2409  12.6961  12.8715  12.9515  28.6909  30.0784  36.1553  37.8700
    38.1720  41.4679

     occupation numbers 
     1.0000   1.0000   1.0000   1.0000   1.0000   1.0000   1.0000   1.0000
     1.0000   1.0000   1.0000   1.0000   0.0000   0.0000   0.0000   0.0000
     0.0000   0.0000

     the Fermi energy is    13.7125 ev

!    total energy              =    -366.02520861 Ry

     total all-electron energy =     -6077.823895 Ry
     estimated scf accuracy    <          7.5E-09 Ry
     smearing contrib. (-TS)   =      -0.00157411 Ry
     internal energy E=F+TS    =    -366.02363450 Ry

     The total energy is F=E-TS. E is the sum of the following terms:
     one-electron contribution =     -17.12701541 Ry
     hartree contribution      =      39.88600114 Ry
     xc contribution           =     -82.75368883 Ry
     ewald contribution        =    -140.42228844 Ry
     Hubbard energy            =       0.22970647 Ry
     one-center paw contrib.   =    -165.83634943 Ry
      -> PAW hartree energy AE =      83.99332039 Ry
      -> PAW hartree energy PS =     -83.63752176 Ry
      -> PAW xc energy AE      =    -124.93865734 Ry
      -> PAW xc energy PS      =      41.66468770 Ry
      -> total E_H with PAW    =      40.24179977 Ry
      -> total E_XC with PAW   =    -166.02765848 Ry

     total magnetization       =    -0.00 Bohr mag/cell
     absolute magnetization    =     0.85 Bohr mag/cell

     convergence has been achieved in  18 iterations

     Forces acting on atoms (cartesian axes, Ry/au):

     atom    1 type  1   force =    -0.00000000    0.00000000    0.00000000
     atom    2 type  2   force =    -0.00000000    0.00000000   -0.00000000
     The non-local contrib.  to forces
     atom    1 type  1   force =     0.00000000    0.00000000    0.00000000
     atom    2 type  2   force =    -0.00000000    0.00000000   -0.00000000
     The ionic contribution  to forces
     atom    1 type  1   force =     0.00000000    0.00000000    0.00000000
     atom    2 type  2   force =     0.00000000   -0.00000000    0.00000000
     The local contribution  to forces
     atom    1 type  1   force =    -0.00000000   -0.00000000   -0.00000000
     atom    2 type  2   force =     0.00000000   -0.00000000   -0.00000000
     The core correction contribution to forces
     atom    1 type  1   force =    -0.00000000   -0.00000000   -0.00000000
     atom    2 type  2   force =     0.00000000   -0.00000000   -0.00000000
     The Hubbard contrib.    to forces
     atom    1 type  1   force =    -0.00000000    0.00000000    0.00000000
     atom    2 type  2   force =     0.00000000    0.00000000    0.00000000
     The SCF correction term to forces
     atom    1 type  1   force =    -0.00000000   -0.00000000    0.00000000
     atom    2 type  2   force =    -0.00000000    0.00000000   -0.00000000

     Total force =     0.000000     Total SCF correction =     0.000000


     Computing stress (Cartesian axis) and pressure

          total   stress  (Ry/bohr**3)                   (kbar)     P=        4.16
   0.00002688   0.00000233   0.00000296            3.95        0.34        0.44
   0.00000233   0.00002958  -0.00000171            0.34        4.35       -0.25
   0.00000296  -0.00000171   0.00002839            0.44       -0.25        4.18

     kinetic stress (kbar)  26297.60     24.71     39.28
                               24.71  26326.14    -22.68
                               39.28    -22.68  26457.19

     local   stress (kbar)  32525.14   -612.68   -449.43
                             -612.68  31817.67    259.48
                             -449.43    259.48  31800.28

     nonloc. stress (kbar)  -7543.78     13.50     15.38
                               13.50  -7528.19     -8.88
                               15.38     -8.88  -7499.30

     hartree stress (kbar)  13866.60    218.83    166.59
                              218.83  14119.28    -96.18
                              166.59    -96.18  14160.00

     exc-cor stress (kbar)  40078.54      1.56      1.44
                                1.56  40080.34     -0.83
                                1.44     -0.83  40082.12

     corecor stress (kbar) -53488.68    -11.91    -13.84
                              -11.91 -53502.43      7.99
                              -13.84      7.99 -53535.90

     ewald   stress (kbar) -49702.29    372.98    248.46
                              372.98 -49271.61   -143.45
                              248.46   -143.45 -49404.45

     hubbard stress (kbar)  -2029.16     -6.65     -7.45
                               -6.65  -2036.84      4.30
                               -7.45      4.30  -2055.75

     DFT-D   stress (kbar)      0.00      0.00      0.00
                                0.00      0.00      0.00
                                0.00      0.00      0.00

     XDM     stress (kbar)      0.00      0.00      0.00
                                0.00      0.00      0.00
                                0.00      0.00      0.00

     dft-nl  stress (kbar)      0.00      0.00      0.00
                                0.00      0.00      0.00
                                0.00      0.00      0.00

     TS-vdW  stress (kbar)      0.00      0.00      0.00
                                0.00      0.00      0.00
                                0.00      0.00      0.00


                                0.00      0.00      0.00
                                0.00      0.00      0.00


                                0.00      0.00      0.00


     Writing output data file /home/ponet/.julia/environments/DFControlDEV/Demo/Ni/outputs/Ni.save/

     init_run     :      1.33s CPU      1.39s WALL (       2 calls)
     electrons    :     99.07s CPU    104.45s WALL (       8 calls)
     update_pot   :      1.22s CPU      1.29s WALL (       6 calls)
     forces       :      1.87s CPU      1.94s WALL (       8 calls)
     stress       :      7.52s CPU      7.67s WALL (       8 calls)

     Called by init_run:
     wfcinit      :      0.55s CPU      0.59s WALL (       2 calls)
     wfcinit:atom :      0.01s CPU      0.01s WALL (     432 calls)
     wfcinit:wfcr :      0.43s CPU      0.46s WALL (     432 calls)
     potinit      :      0.32s CPU      0.33s WALL (       2 calls)
     hinit0       :      0.43s CPU      0.44s WALL (       2 calls)

     Called by electrons:
     c_bands      :     70.98s CPU     74.68s WALL (     107 calls)
     sum_band     :     13.30s CPU     14.09s WALL (     107 calls)
     v_of_rho     :      0.29s CPU      0.30s WALL (     112 calls)
     v_h          :      0.01s CPU      0.01s WALL (     112 calls)
     v_xc         :      0.32s CPU      0.33s WALL (     128 calls)
     newd         :      0.64s CPU      0.65s WALL (     112 calls)
     PAW_pot      :     15.56s CPU     16.53s WALL (     118 calls)
     mix_rho      :      0.04s CPU      0.04s WALL (     107 calls)

     Called by c_bands:
     init_us_2    :      2.17s CPU      2.29s WALL (   56592 calls)
     cegterg      :     66.95s CPU     70.44s WALL (   23112 calls)

     Called by sum_band:
     sum_band:wei :      0.15s CPU      0.16s WALL (     107 calls)
     sum_band:loo :     11.39s CPU     12.14s WALL (     107 calls)
     sum_band:buf :      0.12s CPU      0.13s WALL (   23112 calls)
     sum_band:ini :      0.87s CPU      0.93s WALL (   23112 calls)
     sum_band:cal :      0.66s CPU      0.70s WALL (   24408 calls)
     sum_band:bec :      0.10s CPU      0.11s WALL (   24408 calls)
     addusdens    :      1.18s CPU      1.20s WALL (     107 calls)
     addusd:skk   :      0.00s CPU      0.00s WALL (     214 calls)
     addusd:dgemm :      0.17s CPU      0.17s WALL (     428 calls)
     addusd:qvan2 :      0.98s CPU      1.00s WALL (     428 calls)

     Called by *egterg:
     cdiaghg      :     12.38s CPU     13.02s WALL (   68104 calls)
     cegterg:over :      1.89s CPU      2.00s WALL (   46936 calls)
     cegterg:upda :      0.71s CPU      0.76s WALL (   46936 calls)
     cegterg:last :      1.11s CPU      1.18s WALL (   40385 calls)
     h_psi        :     48.00s CPU     50.53s WALL (   70480 calls)
     s_psi        :      1.13s CPU      1.19s WALL (   75664 calls)
     g_psi        :      0.27s CPU      0.29s WALL (   46936 calls)

     Called by h_psi:
     h_psi:calbec :      1.65s CPU      1.74s WALL (   70480 calls)
     vloc_psi     :     43.47s CPU     45.76s WALL (   70480 calls)
     add_vuspsi   :      1.06s CPU      1.13s WALL (   70480 calls)
     vhpsi        :      1.38s CPU      1.46s WALL (   70480 calls)

     General routines
     calbec       :      6.18s CPU      6.50s WALL (  387200 calls)
     fft          :      0.14s CPU      0.14s WALL (    2700 calls)
     ffts         :      0.01s CPU      0.01s WALL (     214 calls)
     fftw         :     46.31s CPU     48.86s WALL ( 2406206 calls)
     davcio       :      0.00s CPU      0.00s WALL (     432 calls)

     Parallel routines

     Hubbard U routines
     new_ns       :      0.47s CPU      0.49s WALL (     107 calls)
     vhpsi        :      1.38s CPU      1.46s WALL (   70480 calls)
     force_hub    :      1.00s CPU      1.07s WALL (       8 calls)
     stres_hub    :      4.57s CPU      4.72s WALL (       8 calls)

     PAW routines
     PAW_pot      :     15.56s CPU     16.53s WALL (     118 calls)
     PAW_symme    :      0.02s CPU      0.02s WALL (     225 calls)

     PWSCF        :   1m52.45s CPU   1m58.23s WALL


   This run was terminated on:  21:49: 6   6Jul2021            

=------------------------------------------------------------------------------=
   JOB DONE.
=------------------------------------------------------------------------------=
