
             +---------------------------------------------------+
             |                                                   |
             |                   WANNIER90                       |
             |                                                   |
             +---------------------------------------------------+
             |                                                   |
             |        Welcome to the Maximally-Localized         |
             |        Generalized Wannier Functions code         |
             |            http://www.wannier.org                 |
             |                                                   |
             |                                                   |
             |  Wannier90 Developer Group:                       |
             |    Giovanni Pizzi    (EPFL)                       |
             |    Valerio Vitale    (Cambridge)                  |
             |    David Vanderbilt  (Rutgers University)         |
             |    Nicola Marzari    (EPFL)                       |
             |    Ivo Souza         (Universidad del Pais Vasco) |
             |    Arash A. Mostofi  (Imperial College London)    |
             |    Jonathan R. Yates (University of Oxford)       |
             |                                                   |
             |  For the full list of Wannier90 3.x authors,      |
             |  please check the code documentation and the      |
             |  README on the GitHub page of the code            |
             |                                                   |
             |                                                   |
             |  Please cite                                      |
             |                                                   |
             |  [ref] "Wannier90 as a community code:            |
             |        new features and applications",            |
             |        G. Pizzi et al., J. Phys. Cond. Matt. 32,  |
             |        165902 (2020).                             |
             |        http://doi.org/10.1088/1361-648X/ab51ff    |
             |                                                   |
             |  in any publications arising from the use of      |
             |  this code. For the method please cite            |
             |                                                   |
             |  [ref] "Maximally Localized Generalised Wannier   |
             |         Functions for Composite Energy Bands"     |
             |         N. Marzari and D. Vanderbilt              |
             |         Phys. Rev. B 56 12847 (1997)              |
             |                                                   |
             |  [ref] "Maximally Localized Wannier Functions     |
             |         for Entangled Energy Bands"               |
             |         I. Souza, N. Marzari and D. Vanderbilt    |
             |         Phys. Rev. B 65 035109 (2001)             |
             |                                                   |
             |                                                   |
             | Copyright (c) 1996-2020                           |
             |        The Wannier90 Developer Group and          |
             |        individual contributors                    |
             |                                                   |
             |      Release: 3.1.0        5th March    2020      |
             |                                                   |
             | This program is free software; you can            |
             | redistribute it and/or modify it under the terms  |
             | of the GNU General Public License as published by |
             | the Free Software Foundation; either version 2 of |
             | the License, or (at your option) any later version|
             |                                                   |
             | This program is distributed in the hope that it   |
             | will be useful, but WITHOUT ANY WARRANTY; without |
             | even the implied warranty of MERCHANTABILITY or   |
             | FITNESS FOR A PARTICULAR PURPOSE. See the GNU     |
             | General Public License for more details.          |
             |                                                   |
             | You should have received a copy of the GNU General|
             | Public License along with this program; if not,   |
             | write to the Free Software Foundation, Inc.,      |
             | 675 Mass Ave, Cambridge, MA 02139, USA.           |
             |                                                   |
             +---------------------------------------------------+
             |    Execution started on 19May2021 at 13:12:10     |
             +---------------------------------------------------+
 
 ******************************************************************************
 * -> Using CODATA 2006 constant values                                       *
 *    (http://physics.nist.gov/cuu/Constants/index.html)                      *
 * -> Using Bohr value from CODATA                                            *
 ******************************************************************************
 

 Running in serial (with serial executable)

                                    ------
                                    SYSTEM
                                    ------

                              Lattice Vectors (Ang)
                    a_1     4.957940   0.000000   0.000000
                    a_2     1.239485   2.146851   0.000000
                    a_3     1.239485   0.715617   2.024071

                   Unit Cell Volume:      21.54412  (Ang^3)

                        Reciprocal-Space Vectors (Ang^-1)
                    b_1     1.267298  -0.731675  -0.517372
                    b_2     0.000000   2.926698  -1.034744
                    b_3     0.000000   0.000000   3.104232
  
 *----------------------------------------------------------------------------*
 |   Site       Fractional Coordinate          Cartesian Coordinate (Ang)     |
 +----------------------------------------------------------------------------+
 | Ni   1   0.00000   0.00000   0.00000   |    0.00000   0.00000   0.00000    |
 | Ni   1   0.50000   0.00000   0.00000   |    2.47897   0.00000   0.00000    |
 *----------------------------------------------------------------------------*
                                ------------
                                K-POINT GRID
                                ------------
  
             Grid size =  5 x  5 x  5      Total points =  125
  
  
 *---------------------------------- MAIN ------------------------------------*
 |  Number of Wannier Functions               :                18             |
 |  Number of Objective Wannier Functions     :                18             |
 |  Number of input Bloch states              :                18             |
 |  Output verbosity (1=low, 5=high)          :                 1             |
 |  Timing Level (1=low, 5=high)              :                 1             |
 |  Optimisation (0=memory, 3=speed)          :                 3             |
 |  Length Unit                               :               Ang             |
 |  Post-processing setup (write *.nnkp)      :                 F             |
 |  Using Gamma-only branch of algorithms     :                 F             |
 *----------------------------------------------------------------------------*
 *------------------------------- WANNIERISE ---------------------------------*
 |  Total number of iterations                :               100             |
 |  Number of CG steps before reset           :                 5             |
 |  Trial step length for line search         :             2.000             |
 |  Convergence tolerence                     :         0.100E-09             |
 |  Convergence window                        :                -1             |
 |  Iterations between writing output         :                 1             |
 |  Iterations between backing up to disk     :               100             |
 |  Write r^2_nm to file                      :                 F             |
 |  Write xyz WF centres to file              :                 F             |
 |  Write on-site energies <0n|H|0n> to file  :                 F             |
 |  Use guiding centre to control phases      :                 F             |
 |  Use phases for initial projections        :                 F             |
 *----------------------------------------------------------------------------*
 Time to read parameters        0.010 (sec)

 *---------------------------------- K-MESH ----------------------------------*
 +----------------------------------------------------------------------------+
 |                    Distance to Nearest-Neighbour Shells                    |
 |                    ------------------------------------                    |
 |          Shell             Distance (Ang^-1)          Multiplicity         |
 |          -----             -----------------          ------------         |
 |             1                   0.310423                      2            |
 |             2                   0.594415                      6            |
 |             3                   0.620846                      8            |
 |             4                   0.716892                      6            |
 |             5                   0.781215                      6            |
 |             6                   0.931270                      8            |
 |             7                   1.013838                     12            |
 |             8                   1.060297                     12            |
 |             9                   1.175243                      6            |
 |            10                   1.188830                     24            |
 |            11                   1.241693                      8            |
 |            12                   1.279908                     12            |
 |            13                   1.376638                     18            |
 |            14                   1.433783                      6            |
 |            15                   1.467003                      6            |
 |            16                   1.552116                     14            |
 |            17                   1.562429                     24            |
 |            18                   1.603019                     24            |
 |            19                   1.632799                     18            |
 |            20                   1.709678                     12            |
 |            21                   1.756019                     24            |
 |            22                   1.783246                     18            |
 |            23                   1.853896                     18            |
 |            24                   1.862539                     32            |
 |            25                   1.921952                     12            |
 |            26                   1.987679                     12            |
 |            27                   2.027676                     12            |
 |            28                   2.051300                     30            |
 |            29                   2.113007                     18            |
 |            30                   2.120594                     48            |
 |            31                   2.150675                     30            |
 |            32                   2.172963                     14            |
 |            33                   2.231308                     24            |
 |            34                   2.267011                     24            |
 |            35                   2.288165                      6            |
 |            36                   2.343644                     30            |
 +----------------------------------------------------------------------------+
 | The b-vectors are chosen automatically                                     |
 | The following shells are used:   1,  2                                     |
 +----------------------------------------------------------------------------+
 |                        Shell   # Nearest-Neighbours                        |
 |                        -----   --------------------                        |
 |                          1               2                                 |
 |                          2               6                                 |
 +----------------------------------------------------------------------------+
 | Completeness relation is fully satisfied [Eq. (B1), PRB 56, 12847 (1997)]  |
 +----------------------------------------------------------------------------+
 |                  b_k Vectors (Ang^-1) and Weights (Ang^2)                  |
 |                  ----------------------------------------                  |
 |            No.         b_k(x)      b_k(y)      b_k(z)        w_b           |
 |            ---        --------------------------------     --------        |
 |             1         0.253460   -0.146335   -0.103474     4.864440        |
 |             2        -0.253460    0.146335    0.103474     4.864440        |
 |             3         0.253460    0.439005   -0.310423     0.972888        |
 |             4         0.253460   -0.146335    0.517372     0.972888        |
 |             5         0.253460    0.439005    0.310423     0.972888        |
 |             6        -0.253460    0.146335   -0.517372     0.972888        |
 |             7        -0.253460   -0.439005    0.310423     0.972888        |
 |             8        -0.253460   -0.439005   -0.310423     0.972888        |
 +----------------------------------------------------------------------------+
 |                           b_k Directions (Ang^-1)                          |
 |                           -----------------------                          |
 |            No.           x           y           z                         |
 |            ---        --------------------------------                     |
 |             1         0.253460   -0.146335   -0.103474                     |
 |             2         0.253460    0.439005   -0.310423                     |
 |             3         0.253460   -0.146335    0.517372                     |
 |             4         0.253460    0.439005    0.310423                     |
 +----------------------------------------------------------------------------+
  
 Time to get kmesh              0.936 (sec)
 *============================================================================*
 |                              MEMORY ESTIMATE                               |
 |         Maximum RAM allocated during each phase of the calculation         |
 *============================================================================*
 |                            Wannierise:           13.14 Mb                  |
 |                          plot_wannier:           13.14 Mb                  |
 *----------------------------------------------------------------------------*
  
 Starting a new Wannier90 calculation ...


 Reading overlaps from wandn.mmn    :  Created on 19May2021 at 13:12: 8

 Reading projections from wandn.amn :  Created on 19May2021 at 13:12: 4

 Time to read overlaps          0.413 (sec)

 Writing checkpoint file wandn.chk... done


 *------------------------------- WANNIERISE ---------------------------------*
 +--------------------------------------------------------------------+<-- CONV
 | Iter  Delta Spread     RMS Gradient      Spread (Ang^2)      Time  |<-- CONV
 +--------------------------------------------------------------------+<-- CONV

 ------------------------------------------------------------------------------
 Initial State
  WF centre and spread    1  ( -0.000025,  0.000005,  0.000012 )     2.72561630
  WF centre and spread    2  ( -0.065641,  0.045467, -0.081163 )     7.13611932
  WF centre and spread    3  ( -0.037846,  0.019017,  0.026238 )     5.85296384
  WF centre and spread    4  ( -0.037867,  0.028296,  0.026371 )     5.84648199
  WF centre and spread    5  ( -0.000001,  0.000003, -0.000016 )     0.40655933
  WF centre and spread    6  ( -0.000010,  0.000008, -0.000008 )     0.41598022
  WF centre and spread    7  (  0.000007, -0.000007,  0.000005 )     0.41237586
  WF centre and spread    8  (  0.000005, -0.000022, -0.000014 )     0.41353155
  WF centre and spread    9  ( -0.000025,  0.000002,  0.000015 )     0.41463048
  WF centre and spread   10  (  2.478951,  0.000019,  0.000002 )     2.84926055
  WF centre and spread   11  (  2.420249,  0.034272, -0.096021 )     5.66094344
  WF centre and spread   12  (  2.448276,  0.029750,  0.008723 )     5.76277785
  WF centre and spread   13  (  2.484341,  0.032745,  0.028322 )     5.80040507
  WF centre and spread   14  (  2.478975, -0.000002, -0.000004 )     0.40521858
  WF centre and spread   15  (  2.478987, -0.000000,  0.000006 )     0.41455816
  WF centre and spread   16  (  2.478958,  0.000011, -0.000009 )     0.41127456
  WF centre and spread   17  (  2.478967, -0.000016,  0.000016 )     0.41175684
  WF centre and spread   18  (  2.478951,  0.000000, -0.000010 )     0.41132426
  Sum of centres and spreads ( 22.085254,  0.189550, -0.087535 )    45.75177819

      0     0.458E+02     0.0000000000       45.7517781907       0.00  <-- CONV
        O_D=      4.0623964 O_OD=     24.9774912 O_TOT=     45.7517782 <-- SPRD
 ------------------------------------------------------------------------------
 Cycle:      1
  WF centre and spread    1  ( -0.000188,  0.000013,  0.000657 )     2.72277383
  WF centre and spread    2  ( -0.069851,  0.039488, -0.041187 )     6.54937642
  WF centre and spread    3  ( -0.038910,  0.019812,  0.025553 )     5.83492450
  WF centre and spread    4  ( -0.039424,  0.027495,  0.028046 )     5.77570674
  WF centre and spread    5  ( -0.000034,  0.000022, -0.000024 )     0.40645357
  WF centre and spread    6  (  0.000013,  0.000023,  0.000000 )     0.41582479
  WF centre and spread    7  (  0.000014, -0.000041,  0.000012 )     0.41222574
  WF centre and spread    8  (  0.000008, -0.000020, -0.000019 )     0.41339173
  WF centre and spread    9  ( -0.000029, -0.000005,  0.000008 )     0.41448498
  WF centre and spread   10  (  2.478792,  0.000132,  0.000827 )     2.84794076
  WF centre and spread   11  (  2.434488,  0.026925, -0.060893 )     5.31167763
  WF centre and spread   12  (  2.446834,  0.028545,  0.009264 )     5.74847742
  WF centre and spread   13  (  2.480496,  0.032854,  0.029970 )     5.74369998
  WF centre and spread   14  (  2.478985, -0.000005, -0.000050 )     0.40512975
  WF centre and spread   15  (  2.478949,  0.000007,  0.000007 )     0.41443162
  WF centre and spread   16  (  2.478958,  0.000030, -0.000044 )     0.41111803
  WF centre and spread   17  (  2.478963, -0.000013,  0.000017 )     0.41162311
  WF centre and spread   18  (  2.478943, -0.000001, -0.000024 )     0.41117432
  Sum of centres and spreads ( 22.087006,  0.175263, -0.007882 )    44.65043493

      1    -0.110E+01    10.1725532682       44.6504349311       0.09  <-- CONV
        O_D=      2.9736305 O_OD=     24.9649139 O_TOT=     44.6504349 <-- SPRD
 Delta: O_D= -0.1088766E+01 O_OD= -0.1257730E-01 O_TOT= -0.1101343E+01 <-- DLTA
 ------------------------------------------------------------------------------
 Cycle:      2
  WF centre and spread    1  ( -0.000297, -0.000108,  0.001287 )     2.71657125
  WF centre and spread    2  ( -0.064650,  0.038821, -0.018282 )     6.13727317
  WF centre and spread    3  ( -0.036128,  0.017133,  0.023140 )     5.79916501
  WF centre and spread    4  ( -0.043598,  0.031820,  0.032551 )     5.64075450
  WF centre and spread    5  ( -0.000060,  0.000034, -0.000031 )     0.40622678
  WF centre and spread    6  (  0.000044,  0.000037, -0.000005 )     0.41543769
  WF centre and spread    7  (  0.000022, -0.000074,  0.000010 )     0.41181489
  WF centre and spread    8  (  0.000011, -0.000032, -0.000023 )     0.41300286
  WF centre and spread    9  ( -0.000028, -0.000009,  0.000001 )     0.41408901
  WF centre and spread   10  (  2.478736,  0.000200,  0.001546 )     2.84042543
  WF centre and spread   11  (  2.438188,  0.025617, -0.051861 )     5.19528441
  WF centre and spread   12  (  2.447935,  0.025611,  0.009100 )     5.71362857
  WF centre and spread   13  (  2.467008,  0.034047,  0.036155 )     5.64879379
  WF centre and spread   14  (  2.478985, -0.000007, -0.000061 )     0.40492115
  WF centre and spread   15  (  2.478921,  0.000018,  0.000009 )     0.41406280
  WF centre and spread   16  (  2.478955,  0.000047, -0.000071 )     0.41085594
  WF centre and spread   17  (  2.478956, -0.000016,  0.000018 )     0.41124722
  WF centre and spread   18  (  2.478938, -0.000004, -0.000035 )     0.41072849
  Sum of centres and spreads ( 22.081940,  0.173136,  0.033446 )    43.80428295

      2    -0.846E+00     4.3149940463       43.8042829506       0.17  <-- CONV
        O_D=      2.1580334 O_OD=     24.9343589 O_TOT=     43.8042830 <-- SPRD
 Delta: O_D= -0.8155970E+00 O_OD= -0.3055495E-01 O_TOT= -0.8461520E+00 <-- DLTA
 ------------------------------------------------------------------------------
 Cycle:      3
  WF centre and spread    1  ( -0.000252, -0.000512,  0.002192 )     2.69341697
  WF centre and spread    2  ( -0.049173,  0.032670, -0.000980 )     5.60783322
  WF centre and spread    3  ( -0.005398,  0.007871,  0.018184 )     5.71755436
  WF centre and spread    4  ( -0.046688,  0.059166,  0.039541 )     5.50337406
  WF centre and spread    5  ( -0.000090,  0.000046, -0.000044 )     0.40531029
  WF centre and spread    6  (  0.000115,  0.000061, -0.000042 )     0.41394516
  WF centre and spread    7  (  0.000030, -0.000144, -0.000013 )     0.41042273
  WF centre and spread    8  (  0.000002, -0.000072, -0.000027 )     0.41148820
  WF centre and spread    9  ( -0.000010, -0.000006, -0.000010 )     0.41256226
  WF centre and spread   10  (  2.478818,  0.000318,  0.002595 )     2.81330092
  WF centre and spread   11  (  2.450194,  0.019356, -0.035212 )     5.09341952
  WF centre and spread   12  (  2.472287,  0.013925,  0.000767 )     5.62311806
  WF centre and spread   13  (  2.447546,  0.021097,  0.040849 )     5.66518856
  WF centre and spread   14  (  2.478948,  0.000010,  0.000022 )     0.40417548
  WF centre and spread   15  (  2.478901,  0.000038,  0.000011 )     0.41262908
  WF centre and spread   16  (  2.478947,  0.000056, -0.000102 )     0.40980412
  WF centre and spread   17  (  2.478940, -0.000031,  0.000025 )     0.40982750
  WF centre and spread   18  (  2.478953, -0.000015, -0.000049 )     0.40908579
  Sum of centres and spreads ( 22.142071,  0.153834,  0.067707 )    42.81645629

      3    -0.988E+00     2.6923688116       42.8164562862       0.26  <-- CONV
        O_D=      1.3037357 O_OD=     24.8008300 O_TOT=     42.8164563 <-- SPRD
 Delta: O_D= -0.8542977E+00 O_OD= -0.1335289E+00 O_TOT= -0.9878267E+00 <-- DLTA
 ------------------------------------------------------------------------------
 Cycle:      4
  WF centre and spread    1  (  0.000065, -0.000739,  0.002741 )     2.66519489
  WF centre and spread    2  ( -0.040342,  0.027047,  0.003043 )     5.44237280
  WF centre and spread    3  ( -0.028913,  0.001994,  0.023457 )     5.69581048
  WF centre and spread    4  ( -0.010484,  0.054884,  0.021026 )     5.40405649
  WF centre and spread    5  ( -0.000096,  0.000050, -0.000052 )     0.40416155
  WF centre and spread    6  (  0.000170,  0.000079, -0.000080 )     0.41208106
  WF centre and spread    7  (  0.000033, -0.000196, -0.000031 )     0.40876585
  WF centre and spread    8  (  0.000001, -0.000107, -0.000035 )     0.40979818
  WF centre and spread    9  (  0.000002,  0.000015, -0.000015 )     0.41070025
  WF centre and spread   10  (  2.479000,  0.000239,  0.003347 )     2.78155420
  WF centre and spread   11  (  2.457141,  0.014741, -0.029685 )     5.05518283
  WF centre and spread   12  (  2.449921,  0.017612,  0.007589 )     5.60449789
  WF centre and spread   13  (  2.472917,  0.004629,  0.026379 )     5.57722435
  WF centre and spread   14  (  2.478915,  0.000032,  0.000116 )     0.40321729
  WF centre and spread   15  (  2.478894,  0.000046,  0.000011 )     0.41072978
  WF centre and spread   16  (  2.478948,  0.000059, -0.000112 )     0.40832058
  WF centre and spread   17  (  2.478938, -0.000044,  0.000029 )     0.40807971
  WF centre and spread   18  (  2.478973, -0.000014, -0.000055 )     0.40710815
  Sum of centres and spreads ( 22.174084,  0.120328,  0.057674 )    42.30885632

      4    -0.508E+00     2.3392415569       42.3088563220       0.34  <-- CONV
        O_D=      0.9782413 O_OD=     24.6187244 O_TOT=     42.3088563 <-- SPRD
 Delta: O_D= -0.3254944E+00 O_OD= -0.1821056E+00 O_TOT= -0.5076000E+00 <-- DLTA
 ------------------------------------------------------------------------------
 Cycle:      5
  WF centre and spread    1  (  0.000355, -0.000901,  0.003160 )     2.63033798
  WF centre and spread    2  ( -0.034297,  0.022034,  0.004929 )     5.36679630
  WF centre and spread    3  (  0.011809, -0.006309,  0.018485 )     5.65439378
  WF centre and spread    4  ( -0.000459,  0.048535,  0.010524 )     5.32066332
  WF centre and spread    5  ( -0.000109,  0.000052, -0.000054 )     0.40268952
  WF centre and spread    6  (  0.000222,  0.000097, -0.000118 )     0.40970514
  WF centre and spread    7  (  0.000035, -0.000238, -0.000050 )     0.40670517
  WF centre and spread    8  ( -0.000022, -0.000158, -0.000039 )     0.40771907
  WF centre and spread    9  (  0.000005,  0.000033, -0.000019 )     0.40837972
  WF centre and spread   10  (  2.479143,  0.000053,  0.004059 )     2.74274206
  WF centre and spread   11  (  2.460826,  0.011677, -0.027711 )     5.03541430
  WF centre and spread   12  (  2.492954,  0.005583, -0.008117 )     5.56914997
  WF centre and spread   13  (  2.481048,  0.008775,  0.025437 )     5.48324162
  WF centre and spread   14  (  2.478871,  0.000054,  0.000218 )     0.40192647
  WF centre and spread   15  (  2.478895,  0.000054,  0.000012 )     0.40825913
  WF centre and spread   16  (  2.478948,  0.000054, -0.000120 )     0.40631995
  WF centre and spread   17  (  2.478921, -0.000071,  0.000041 )     0.40587709
  WF centre and spread   18  (  2.478999, -0.000014, -0.000058 )     0.40467348
  Sum of centres and spreads ( 22.286145,  0.089309,  0.030578 )    41.86499408

      5    -0.444E+00     2.4451166057       41.8649940819       0.43  <-- CONV
        O_D=      0.7903452 O_OD=     24.3627583 O_TOT=     41.8649941 <-- SPRD
 Delta: O_D= -0.1878961E+00 O_OD= -0.2559661E+00 O_TOT= -0.4438622E+00 <-- DLTA
 ------------------------------------------------------------------------------
 Cycle:      6
  WF centre and spread    1  (  0.000695, -0.001058,  0.003571 )     2.58401609
  WF centre and spread    2  ( -0.032313,  0.018940,  0.007414 )     5.31712143
  WF centre and spread    3  ( -0.005033, -0.011633,  0.021417 )     5.61811620
  WF centre and spread    4  ( -0.016425,  0.042974,  0.008207 )     5.22599601
  WF centre and spread    5  ( -0.000109,  0.000053, -0.000056 )     0.40063066
  WF centre and spread    6  (  0.000272,  0.000111, -0.000157 )     0.40650979
  WF centre and spread    7  (  0.000031, -0.000277, -0.000070 )     0.40398140
  WF centre and spread    8  ( -0.000030, -0.000195, -0.000047 )     0.40493904
  WF centre and spread    9  ( -0.000004,  0.000048, -0.000026 )     0.40535266
  WF centre and spread   10  (  2.479337, -0.000223,  0.004882 )     2.69243450
  WF centre and spread   11  (  2.459621,  0.011320, -0.028944 )     5.01764756
  WF centre and spread   12  (  2.467211,  0.006755, -0.001696 )     5.50995376
  WF centre and spread   13  (  2.475749,  0.010952,  0.027617 )     5.41705770
  WF centre and spread   14  (  2.478848,  0.000070,  0.000328 )     0.40002077
  WF centre and spread   15  (  2.478901,  0.000062,  0.000003 )     0.40489871
  WF centre and spread   16  (  2.478941,  0.000036, -0.000129 )     0.40351300
  WF centre and spread   17  (  2.478923, -0.000079,  0.000045 )     0.40300604
  WF centre and spread   18  (  2.479021, -0.000017, -0.000060 )     0.40152248
  Sum of centres and spreads ( 22.223636,  0.077837,  0.042297 )    41.41671779

      6    -0.448E+00     2.1174885765       41.4167177868       0.51  <-- CONV
        O_D=      0.7172544 O_OD=     23.9875728 O_TOT=     41.4167178 <-- SPRD
 Delta: O_D= -0.7309086E-01 O_OD= -0.3751854E+00 O_TOT= -0.4482763E+00 <-- DLTA
 ------------------------------------------------------------------------------
 Cycle:      7
  WF centre and spread    1  (  0.000731, -0.001151,  0.003492 )     2.57269728
  WF centre and spread    2  ( -0.033661,  0.019513,  0.008130 )     5.30167144
  WF centre and spread    3  (  0.028732, -0.012169,  0.014007 )     5.61148985
  WF centre and spread    4  ( -0.017531,  0.043295,  0.009212 )     5.17238870
  WF centre and spread    5  ( -0.000111,  0.000056, -0.000051 )     0.40001941
  WF centre and spread    6  (  0.000273,  0.000108, -0.000151 )     0.40580846
  WF centre and spread    7  (  0.000022, -0.000277, -0.000067 )     0.40329026
  WF centre and spread    8  ( -0.000033, -0.000200, -0.000039 )     0.40430535
  WF centre and spread    9  (  0.000004,  0.000046, -0.000028 )     0.40473884
  WF centre and spread   10  (  2.479339, -0.000208,  0.004903 )     2.68193780
  WF centre and spread   11  (  2.457994,  0.012331, -0.029804 )     5.00640750
  WF centre and spread   12  (  2.508533,  0.004847, -0.013376 )     5.50254039
  WF centre and spread   13  (  2.471366,  0.003267,  0.027102 )     5.37016529
  WF centre and spread   14  (  2.478845,  0.000067,  0.000330 )     0.39939003
  WF centre and spread   15  (  2.478908,  0.000064, -0.000001 )     0.40415820
  WF centre and spread   16  (  2.478934,  0.000022, -0.000131 )     0.40276791
  WF centre and spread   17  (  2.478921, -0.000075,  0.000050 )     0.40244075
  WF centre and spread   18  (  2.479024, -0.000020, -0.000058 )     0.40090008
  Sum of centres and spreads ( 22.290290,  0.069516,  0.023519 )    41.24711753

      7    -0.170E+00     2.0939235106       41.2471175272       0.59  <-- CONV
        O_D=      0.6481798 O_OD=     23.8870472 O_TOT=     41.2471175 <-- SPRD
 Delta: O_D= -0.6907459E-01 O_OD= -0.1005257E+00 O_TOT= -0.1696003E+00 <-- DLTA
 ------------------------------------------------------------------------------
 Cycle:      8
  WF centre and spread    1  (  0.000944, -0.001509,  0.003369 )     2.52755680
  WF centre and spread    2  ( -0.038278,  0.020922,  0.010311 )     5.26178784
  WF centre and spread    3  ( -0.014382,  0.004803,  0.024712 )     5.55735608
  WF centre and spread    4  ( -0.016328,  0.040785,  0.013465 )     5.09503376
  WF centre and spread    5  ( -0.000086,  0.000057, -0.000034 )     0.39758598
  WF centre and spread    6  (  0.000273,  0.000096, -0.000141 )     0.40295954
  WF centre and spread    7  ( -0.000003, -0.000273, -0.000061 )     0.40046808
  WF centre and spread    8  ( -0.000003, -0.000195, -0.000028 )     0.40179319
  WF centre and spread    9  (  0.000018,  0.000044, -0.000035 )     0.40225645
  WF centre and spread   10  (  2.479569, -0.000310,  0.005075 )     2.63930426
  WF centre and spread   11  (  2.452343,  0.015483, -0.033514 )     4.97381900
  WF centre and spread   12  (  2.472195,  0.016355, -0.003091 )     5.43924964
  WF centre and spread   13  (  2.464459, -0.015340,  0.025136 )     5.33730082
  WF centre and spread   14  (  2.478876,  0.000049,  0.000337 )     0.39685938
  WF centre and spread   15  (  2.478930,  0.000067, -0.000023 )     0.40115098
  WF centre and spread   16  (  2.478913, -0.000028, -0.000135 )     0.39974062
  WF centre and spread   17  (  2.478957, -0.000033,  0.000049 )     0.40016965
  WF centre and spread   18  (  2.479032, -0.000026, -0.000050 )     0.39839156
  Sum of centres and spreads ( 22.195429,  0.080949,  0.045342 )    40.83278362

      8    -0.414E+00     2.1492857936       40.8327836171       0.67  <-- CONV
        O_D=      0.6320551 O_OD=     23.4888379 O_TOT=     40.8327836 <-- SPRD
 Delta: O_D= -0.1612465E-01 O_OD= -0.3982093E+00 O_TOT= -0.4143339E+00 <-- DLTA
 ------------------------------------------------------------------------------
 Cycle:      9
  WF centre and spread    1  (  0.001146, -0.001950,  0.003336 )     2.46608678
  WF centre and spread    2  ( -0.038733,  0.019706,  0.010535 )     5.21915473
  WF centre and spread    3  ( -0.016470, -0.000873,  0.021234 )     5.59869334
  WF centre and spread    4  ( -0.010992,  0.036822,  0.018021 )     5.06878440
  WF centre and spread    5  ( -0.000062,  0.000050, -0.000003 )     0.39432400
  WF centre and spread    6  (  0.000273,  0.000090, -0.000129 )     0.39899112
  WF centre and spread    7  ( -0.000024, -0.000264, -0.000062 )     0.39657673
  WF centre and spread    8  ( -0.000007, -0.000201, -0.000023 )     0.39845199
  WF centre and spread    9  (  0.000032,  0.000051, -0.000047 )     0.39881338
  WF centre and spread   10  (  2.479951, -0.000686,  0.005293 )     2.57959634
  WF centre and spread   11  (  2.448664,  0.017266, -0.037531 )     4.94187668
  WF centre and spread   12  (  2.460866,  0.015831,  0.001451 )     5.47675128
  WF centre and spread   13  (  2.464408, -0.013744,  0.024925 )     5.31134911
  WF centre and spread   14  (  2.478908,  0.000026,  0.000334 )     0.39340206
  WF centre and spread   15  (  2.478966,  0.000069, -0.000044 )     0.39699547
  WF centre and spread   16  (  2.478891, -0.000086, -0.000131 )     0.39556765
  WF centre and spread   17  (  2.478970, -0.000005,  0.000044 )     0.39702547
  WF centre and spread   18  (  2.479064, -0.000031, -0.000049 )     0.39490956
  Sum of centres and spreads ( 22.183851,  0.072072,  0.047156 )    40.62735008

      9    -0.205E+00     2.1989768386       40.6273500781       0.76  <-- CONV
        O_D=      0.9633803 O_OD=     22.9520792 O_TOT=     40.6273501 <-- SPRD
 Delta: O_D=  0.3313251E+00 O_OD= -0.5367587E+00 O_TOT= -0.2054335E+00 <-- DLTA
 ------------------------------------------------------------------------------
 Cycle:     10
  WF centre and spread    1  (  0.001513, -0.002393,  0.003430 )     2.41107401
  WF centre and spread    2  ( -0.034452,  0.016829,  0.009272 )     5.17150463
  WF centre and spread    3  ( -0.026898, -0.005872,  0.024566 )     5.47234432
  WF centre and spread    4  ( -0.016677,  0.015388,  0.007295 )     4.96098399
  WF centre and spread    5  ( -0.000034,  0.000036,  0.000034 )     0.39147284
  WF centre and spread    6  (  0.000272,  0.000092, -0.000121 )     0.39538468
  WF centre and spread    7  ( -0.000034, -0.000255, -0.000072 )     0.39321689
  WF centre and spread    8  ( -0.000013, -0.000218, -0.000025 )     0.39556436
  WF centre and spread    9  (  0.000041,  0.000061, -0.000055 )     0.39569426
  WF centre and spread   10  (  2.480421, -0.001099,  0.005447 )     2.52523844
  WF centre and spread   11  (  2.448620,  0.017133, -0.038298 )     4.90494012
  WF centre and spread   12  (  2.451282,  0.014497,  0.003160 )     5.35528611
  WF centre and spread   13  (  2.466806,  0.006974,  0.033227 )     5.30576254
  WF centre and spread   14  (  2.478940,  0.000004,  0.000324 )     0.39034149
  WF centre and spread   15  (  2.479004,  0.000068, -0.000059 )     0.39328799
  WF centre and spread   16  (  2.478879, -0.000126, -0.000122 )     0.39188462
  WF centre and spread   17  (  2.478982,  0.000008,  0.000039 )     0.39424970
  WF centre and spread   18  (  2.479101, -0.000030, -0.000051 )     0.39176776
  Sum of centres and spreads ( 22.165754,  0.061099,  0.047990 )    40.03999875

     10    -0.587E+00     2.4406860985       40.0399987455       0.85  <-- CONV
        O_D=      0.8584042 O_OD=     22.4697039 O_TOT=     40.0399987 <-- SPRD
 Delta: O_D= -0.1049761E+00 O_OD= -0.4823753E+00 O_TOT= -0.5873513E+00 <-- DLTA
 ------------------------------------------------------------------------------
 Cycle:     11
  WF centre and spread    1  (  0.001946, -0.002667,  0.003615 )     2.37527658
  WF centre and spread    2  ( -0.028978,  0.014376,  0.007720 )     5.13131085
  WF centre and spread    3  ( -0.044950, -0.008425,  0.030194 )     5.40502029
  WF centre and spread    4  ( -0.013566,  0.011646,  0.005040 )     4.87554204
  WF centre and spread    5  ( -0.000011,  0.000024,  0.000060 )     0.38958243
  WF centre and spread    6  (  0.000267,  0.000094, -0.000115 )     0.39297683
  WF centre and spread    7  ( -0.000037, -0.000251, -0.000078 )     0.39099221
  WF centre and spread    8  ( -0.000017, -0.000227, -0.000030 )     0.39367976
  WF centre and spread    9  (  0.000045,  0.000071, -0.000058 )     0.39358520
  WF centre and spread   10  (  2.480888, -0.001213,  0.005399 )     2.48821608
  WF centre and spread   11  (  2.451472,  0.017963, -0.031251 )     4.86030109
  WF centre and spread   12  (  2.433901,  0.014302,  0.004261 )     5.30429639
  WF centre and spread   13  (  2.464748,  0.006043,  0.033384 )     5.21818691
  WF centre and spread   14  (  2.478966, -0.000008,  0.000312 )     0.38828925
  WF centre and spread   15  (  2.479033,  0.000066, -0.000065 )     0.39084166
  WF centre and spread   16  (  2.478875, -0.000151, -0.000111 )     0.38944722
  WF centre and spread   17  (  2.478993,  0.000026,  0.000033 )     0.39238456
  WF centre and spread   18  (  2.479122, -0.000027, -0.000057 )     0.38967073
  Sum of centres and spreads ( 22.140697,  0.051645,  0.058254 )    39.56960008

     11    -0.470E+00     1.8171370022       39.5696000760       0.95  <-- CONV
        O_D=      0.7279892 O_OD=     22.1297203 O_TOT=     39.5696001 <-- SPRD
 Delta: O_D= -0.1304150E+00 O_OD= -0.3399836E+00 O_TOT= -0.4703987E+00 <-- DLTA
 ------------------------------------------------------------------------------
 Cycle:     12
  WF centre and spread    1  (  0.003768, -0.004097,  0.004029 )     2.26679220
  WF centre and spread    2  ( -0.000198,  0.003593,  0.001829 )     5.08074232
  WF centre and spread    3  (  0.021428, -0.023352,  0.010612 )     5.35605431
  WF centre and spread    4  ( -0.013881, -0.027887, -0.018328 )     4.92604936
  WF centre and spread    5  (  0.000053, -0.000017,  0.000146 )     0.38377633
  WF centre and spread    6  (  0.000250,  0.000102, -0.000080 )     0.38546545
  WF centre and spread    7  ( -0.000036, -0.000225, -0.000077 )     0.38426689
  WF centre and spread    8  ( -0.000033, -0.000278, -0.000037 )     0.38812357
  WF centre and spread    9  (  0.000074,  0.000090, -0.000061 )     0.38721970
  WF centre and spread   10  (  2.482980, -0.001736,  0.004592 )     2.37405268
  WF centre and spread   11  (  2.474462,  0.033856,  0.060808 )     5.13128151
  WF centre and spread   12  (  2.507073,  0.010959, -0.026375 )     5.17018204
  WF centre and spread   13  (  2.473001,  0.015048, -0.001419 )     5.58262821
  WF centre and spread   14  (  2.479045, -0.000056,  0.000277 )     0.38210934
  WF centre and spread   15  (  2.479143,  0.000066, -0.000071 )     0.38337284
  WF centre and spread   16  (  2.478866, -0.000224, -0.000068 )     0.38201504
  WF centre and spread   17  (  2.479047,  0.000088,  0.000041 )     0.38707912
  WF centre and spread   18  (  2.479186, -0.000020, -0.000079 )     0.38332561
  Sum of centres and spreads ( 22.344227,  0.005912,  0.035740 )    39.73453654

     12     0.165E+00     1.8845933218       39.7345365359       1.04  <-- CONV
        O_D=      2.0633630 O_OD=     20.9592830 O_TOT=     39.7345365 <-- SPRD
 Delta: O_D=  0.1335374E+01 O_OD= -0.1170437E+01 O_TOT=  0.1649365E+00 <-- DLTA
 ------------------------------------------------------------------------------
 Cycle:     13
  WF centre and spread    1  (  0.003489, -0.003608,  0.004008 )     2.28382637
  WF centre and spread    2  (  0.000496,  0.009710,  0.004311 )     5.13419263
  WF centre and spread    3  (  0.021797, -0.023223,  0.010213 )     5.33801845
  WF centre and spread    4  ( -0.007438, -0.018601, -0.012303 )     4.82650996
  WF centre and spread    5  (  0.000051, -0.000015,  0.000142 )     0.38373847
  WF centre and spread    6  (  0.000249,  0.000102, -0.000080 )     0.38546700
  WF centre and spread    7  ( -0.000038, -0.000223, -0.000071 )     0.38429011
  WF centre and spread    8  ( -0.000035, -0.000269, -0.000035 )     0.38810148
  WF centre and spread    9  (  0.000067,  0.000093, -0.000060 )     0.38725454
  WF centre and spread   10  (  2.482520, -0.001277,  0.004889 )     2.40253629
  WF centre and spread   11  (  2.474750,  0.033255,  0.047363 )     5.02660521
  WF centre and spread   12  (  2.506732,  0.011439, -0.026448 )     5.16005480
  WF centre and spread   13  (  2.485275,  0.002724,  0.020054 )     5.04315993
  WF centre and spread   14  (  2.479046, -0.000064,  0.000292 )     0.38206215
  WF centre and spread   15  (  2.479137,  0.000067, -0.000070 )     0.38336861
  WF centre and spread   16  (  2.478865, -0.000225, -0.000070 )     0.38199292
  WF centre and spread   17  (  2.479045,  0.000077,  0.000038 )     0.38709170
  WF centre and spread   18  (  2.479185, -0.000020, -0.000079 )     0.38341441
  Sum of centres and spreads ( 22.363194,  0.009940,  0.052093 )    39.06168503

     13    -0.673E+00    50.3345256090       39.0616850295       1.13  <-- CONV
        O_D=      1.3286587 O_OD=     21.0211358 O_TOT=     39.0616850 <-- SPRD
 Delta: O_D= -0.7347043E+00 O_OD=  0.6185279E-01 O_TOT= -0.6728515E+00 <-- DLTA
 ------------------------------------------------------------------------------
 Cycle:     14
  WF centre and spread    1  (  0.003404, -0.003263,  0.003864 )     2.28505355
  WF centre and spread    2  ( -0.002182,  0.010262,  0.005928 )     5.09063714
  WF centre and spread    3  (  0.023169, -0.023145,  0.008791 )     5.19165504
  WF centre and spread    4  (  0.007832, -0.005082,  0.000228 )     4.72100465
  WF centre and spread    5  (  0.000044, -0.000002,  0.000132 )     0.38350011
  WF centre and spread    6  (  0.000251,  0.000099, -0.000079 )     0.38516413
  WF centre and spread    7  ( -0.000046, -0.000230, -0.000069 )     0.38397152
  WF centre and spread    8  ( -0.000035, -0.000260, -0.000041 )     0.38787306
  WF centre and spread    9  (  0.000068,  0.000094, -0.000060 )     0.38700382
  WF centre and spread   10  (  2.482412, -0.000897,  0.005475 )     2.40010948
  WF centre and spread   11  (  2.477471,  0.023746,  0.000389 )     4.77069386
  WF centre and spread   12  (  2.502027,  0.011330, -0.023123 )     5.02471137
  WF centre and spread   13  (  2.478662, -0.016348,  0.021926 )     4.99647276
  WF centre and spread   14  (  2.479036, -0.000053,  0.000309 )     0.38172568
  WF centre and spread   15  (  2.479112,  0.000071, -0.000074 )     0.38303726
  WF centre and spread   16  (  2.478860, -0.000234, -0.000083 )     0.38164931
  WF centre and spread   17  (  2.479036,  0.000102,  0.000036 )     0.38681736
  WF centre and spread   18  (  2.479177, -0.000022, -0.000078 )     0.38312457
  Sum of centres and spreads ( 22.368298, -0.003833,  0.023470 )    38.32420468

     14    -0.737E+00     3.2379029888       38.3242046810       1.22  <-- CONV
        O_D=      0.6501541 O_OD=     20.9621600 O_TOT=     38.3242047 <-- SPRD
 Delta: O_D= -0.6785046E+00 O_OD= -0.5897579E-01 O_TOT= -0.7374803E+00 <-- DLTA
 ------------------------------------------------------------------------------
 Cycle:     15
  WF centre and spread    1  (  0.002641, -0.003430,  0.003844 )     2.27696695
  WF centre and spread    2  ( -0.008930,  0.011231,  0.009383 )     5.03869499
  WF centre and spread    3  ( -0.008437, -0.020933,  0.016737 )     5.06490134
  WF centre and spread    4  (  0.007137,  0.004603,  0.004811 )     4.64974354
  WF centre and spread    5  (  0.000034,  0.000002,  0.000106 )     0.38289319
  WF centre and spread    6  (  0.000247,  0.000094, -0.000080 )     0.38436742
  WF centre and spread    7  ( -0.000050, -0.000239, -0.000070 )     0.38310927
  WF centre and spread    8  ( -0.000033, -0.000232, -0.000058 )     0.38697015
  WF centre and spread    9  (  0.000059,  0.000094, -0.000061 )     0.38623795
  WF centre and spread   10  (  2.482068, -0.000628,  0.006513 )     2.38552592
  WF centre and spread   11  (  2.468748,  0.016129, -0.026600 )     4.67481516
  WF centre and spread   12  (  2.468897,  0.009626, -0.008684 )     4.91553244
  WF centre and spread   13  (  2.470971, -0.012591,  0.024680 )     4.93719064
  WF centre and spread   14  (  2.479020, -0.000048,  0.000334 )     0.38090321
  WF centre and spread   15  (  2.479076,  0.000078, -0.000086 )     0.38218940
  WF centre and spread   16  (  2.478851, -0.000230, -0.000103 )     0.38072062
  WF centre and spread   17  (  2.479029,  0.000134,  0.000025 )     0.38585519
  WF centre and spread   18  (  2.479152, -0.000016, -0.000070 )     0.38226877
  Sum of centres and spreads ( 22.278482,  0.003646,  0.030622 )    37.77888616

     15    -0.545E+00     1.8323480604       37.7788861571       1.31  <-- CONV
        O_D=      0.2931924 O_OD=     20.7738032 O_TOT=     37.7788862 <-- SPRD
 Delta: O_D= -0.3569617E+00 O_OD= -0.1883568E+00 O_TOT= -0.5453185E+00 <-- DLTA
 ------------------------------------------------------------------------------
 Cycle:     16
  WF centre and spread    1  (  0.002202, -0.003908,  0.003719 )     2.25886548
  WF centre and spread    2  ( -0.019022,  0.014799,  0.012193 )     4.98074172
  WF centre and spread    3  ( -0.012209, -0.016568,  0.019096 )     5.04943338
  WF centre and spread    4  (  0.004817,  0.008160, -0.005929 )     4.61605953
  WF centre and spread    5  (  0.000027, -0.000003,  0.000095 )     0.38202773
  WF centre and spread    6  (  0.000243,  0.000091, -0.000074 )     0.38321739
  WF centre and spread    7  ( -0.000040, -0.000241, -0.000060 )     0.38185234
  WF centre and spread    8  ( -0.000011, -0.000225, -0.000065 )     0.38559821
  WF centre and spread    9  (  0.000071,  0.000083, -0.000064 )     0.38508775
  WF centre and spread   10  (  2.482142, -0.000729,  0.006528 )     2.36196318
  WF centre and spread   11  (  2.460273,  0.016067, -0.027622 )     4.61824211
  WF centre and spread   12  (  2.465076,  0.012270, -0.002281 )     4.90460852
  WF centre and spread   13  (  2.481183, -0.024928,  0.012504 )     4.92735918
  WF centre and spread   14  (  2.479017, -0.000049,  0.000338 )     0.37982150
  WF centre and spread   15  (  2.479058,  0.000080, -0.000092 )     0.38100090
  WF centre and spread   16  (  2.478850, -0.000226, -0.000113 )     0.37940239
  WF centre and spread   17  (  2.479043,  0.000139,  0.000023 )     0.38444934
  WF centre and spread   18  (  2.479141, -0.000010, -0.000062 )     0.38099973
  Sum of centres and spreads ( 22.259861,  0.004803,  0.018136 )    37.54073036

     16    -0.238E+00     1.1438118191       37.5407303640       1.40  <-- CONV
        O_D=      0.3383421 O_OD=     20.4904977 O_TOT=     37.5407304 <-- SPRD
 Delta: O_D=  0.4514970E-01 O_OD= -0.2833055E+00 O_TOT= -0.2381558E+00 <-- DLTA
 ------------------------------------------------------------------------------
 Cycle:     17
  WF centre and spread    1  (  0.001596, -0.004339,  0.003913 )     2.22546592
  WF centre and spread    2  ( -0.031624,  0.020110,  0.016348 )     4.94369063
  WF centre and spread    3  ( -0.030766, -0.008719,  0.026301 )     5.02632003
  WF centre and spread    4  ( -0.004567,  0.020437, -0.000748 )     4.56688218
  WF centre and spread    5  (  0.000015, -0.000007,  0.000084 )     0.38051313
  WF centre and spread    6  (  0.000237,  0.000087, -0.000059 )     0.38107106
  WF centre and spread    7  ( -0.000026, -0.000252, -0.000049 )     0.37954303
  WF centre and spread    8  (  0.000034, -0.000212, -0.000070 )     0.38318139
  WF centre and spread    9  (  0.000090,  0.000061, -0.000071 )     0.38296803
  WF centre and spread   10  (  2.482522, -0.000602,  0.006907 )     2.31993713
  WF centre and spread   11  (  2.448720,  0.017683, -0.033460 )     4.56806559
  WF centre and spread   12  (  2.437531,  0.010925,  0.004191 )     4.89721688
  WF centre and spread   13  (  2.472645, -0.008410,  0.027025 )     4.87417848
  WF centre and spread   14  (  2.479017, -0.000053,  0.000328 )     0.37800234
  WF centre and spread   15  (  2.479031,  0.000078, -0.000098 )     0.37882887
  WF centre and spread   16  (  2.478852, -0.000217, -0.000139 )     0.37704313
  WF centre and spread   17  (  2.479073,  0.000146,  0.000024 )     0.38206189
  WF centre and spread   18  (  2.479134,  0.000001, -0.000057 )     0.37868083
  Sum of centres and spreads ( 22.171516,  0.046716,  0.050372 )    37.22365055

     17    -0.317E+00     1.5502374604       37.2236505467       1.49  <-- CONV
        O_D=      0.5516080 O_OD=     19.9601519 O_TOT=     37.2236505 <-- SPRD
 Delta: O_D=  0.2132660E+00 O_OD= -0.5303458E+00 O_TOT= -0.3170798E+00 <-- DLTA
 ------------------------------------------------------------------------------
 Cycle:     18
  WF centre and spread    1  (  0.001355, -0.004697,  0.003907 )     2.20291104
  WF centre and spread    2  ( -0.030065,  0.018778,  0.016326 )     4.90903942
  WF centre and spread    3  ( -0.022531, -0.006468,  0.024689 )     5.00172834
  WF centre and spread    4  ( -0.008372,  0.023191, -0.002510 )     4.56680869
  WF centre and spread    5  ( -0.000000, -0.000007,  0.000085 )     0.37960404
  WF centre and spread    6  (  0.000236,  0.000086, -0.000049 )     0.37966476
  WF centre and spread    7  ( -0.000020, -0.000260, -0.000041 )     0.37806422
  WF centre and spread    8  (  0.000058, -0.000208, -0.000069 )     0.38170003
  WF centre and spread    9  (  0.000106,  0.000046, -0.000075 )     0.38159755
  WF centre and spread   10  (  2.482850, -0.000598,  0.006986 )     2.29153740
  WF centre and spread   11  (  2.448931,  0.012981, -0.034847 )     4.52586179
  WF centre and spread   12  (  2.456074,  0.014861,  0.003523 )     4.82117191
  WF centre and spread   13  (  2.476208, -0.011984,  0.024768 )     4.87904615
  WF centre and spread   14  (  2.479015, -0.000056,  0.000322 )     0.37694425
  WF centre and spread   15  (  2.479018,  0.000076, -0.000097 )     0.37743442
  WF centre and spread   16  (  2.478854, -0.000210, -0.000150 )     0.37556041
  WF centre and spread   17  (  2.479084,  0.000146,  0.000027 )     0.38065775
  WF centre and spread   18  (  2.479132,  0.000008, -0.000056 )     0.37720524
  Sum of centres and spreads ( 22.199932,  0.045684,  0.042739 )    36.98653742

     18    -0.237E+00     2.0135258329       36.9865374156       1.58  <-- CONV
        O_D=      0.6526972 O_OD=     19.6219496 O_TOT=     36.9865374 <-- SPRD
 Delta: O_D=  0.1010891E+00 O_OD= -0.3382023E+00 O_TOT= -0.2371131E+00 <-- DLTA
 ------------------------------------------------------------------------------
 Cycle:     19
  WF centre and spread    1  (  0.001578, -0.004763,  0.003914 )     2.19692305
  WF centre and spread    2  ( -0.019257,  0.011089,  0.011603 )     4.83822753
  WF centre and spread    3  ( -0.034899, -0.008317,  0.026673 )     4.97582444
  WF centre and spread    4  ( -0.000213,  0.014602, -0.004056 )     4.51289005
  WF centre and spread    5  (  0.000001, -0.000005,  0.000097 )     0.37932381
  WF centre and spread    6  (  0.000238,  0.000086, -0.000048 )     0.37938390
  WF centre and spread    7  ( -0.000026, -0.000258, -0.000044 )     0.37774813
  WF centre and spread    8  (  0.000053, -0.000207, -0.000067 )     0.38145287
  WF centre and spread    9  (  0.000102,  0.000050, -0.000071 )     0.38136201
  WF centre and spread   10  (  2.482978, -0.000740,  0.006946 )     2.28526800
  WF centre and spread   11  (  2.455270,  0.005923, -0.038528 )     4.48597691
  WF centre and spread   12  (  2.440664,  0.010928,  0.009100 )     4.78266119
  WF centre and spread   13  (  2.483788, -0.016483,  0.015570 )     4.84322317
  WF centre and spread   14  (  2.479018, -0.000058,  0.000323 )     0.37671837
  WF centre and spread   15  (  2.479027,  0.000076, -0.000098 )     0.37714161
  WF centre and spread   16  (  2.478854, -0.000207, -0.000143 )     0.37522096
  WF centre and spread   17  (  2.479090,  0.000142,  0.000023 )     0.38040669
  WF centre and spread   18  (  2.479137,  0.000011, -0.000058 )     0.37694648
  Sum of centres and spreads ( 22.205403,  0.011869,  0.031138 )    36.70669917

     19    -0.280E+00     1.7708174550       36.7066991737       1.66  <-- CONV
        O_D=      0.4521613 O_OD=     19.5426473 O_TOT=     36.7066992 <-- SPRD
 Delta: O_D= -0.2005359E+00 O_OD= -0.7930232E-01 O_TOT= -0.2798382E+00 <-- DLTA
 ------------------------------------------------------------------------------
 Cycle:     20
  WF centre and spread    1  (  0.001740, -0.004395,  0.004013 )     2.18744822
  WF centre and spread    2  ( -0.008384,  0.004908,  0.007036 )     4.80363676
  WF centre and spread    3  ( -0.010220, -0.012992,  0.015453 )     4.88126713
  WF centre and spread    4  (  0.004684, -0.001483, -0.008506 )     4.49702036
  WF centre and spread    5  ( -0.000005, -0.000001,  0.000115 )     0.37886998
  WF centre and spread    6  (  0.000241,  0.000088, -0.000043 )     0.37890251
  WF centre and spread    7  ( -0.000032, -0.000253, -0.000046 )     0.37721727
  WF centre and spread    8  (  0.000034, -0.000209, -0.000058 )     0.38104169
  WF centre and spread    9  (  0.000097,  0.000054, -0.000067 )     0.38096408
  WF centre and spread   10  (  2.482958, -0.000591,  0.006867 )     2.27542833
  WF centre and spread   11  (  2.464747, -0.001133, -0.043190 )     4.48230096
  WF centre and spread   12  (  2.470397,  0.009669, -0.005786 )     4.67099142
  WF centre and spread   13  (  2.477839, -0.012258,  0.025165 )     4.82103711
  WF centre and spread   14  (  2.479017, -0.000060,  0.000326 )     0.37634942
  WF centre and spread   15  (  2.479039,  0.000076, -0.000088 )     0.37664725
  WF centre and spread   16  (  2.478855, -0.000205, -0.000135 )     0.37465018
  WF centre and spread   17  (  2.479080,  0.000125,  0.000025 )     0.37999468
  WF centre and spread   18  (  2.479147,  0.000010, -0.000062 )     0.37650118
  Sum of centres and spreads ( 22.279234, -0.018649,  0.001019 )    36.40026855

     20    -0.306E+00     1.9360341904       36.4002685471       1.75  <-- CONV
        O_D=      0.2737407 O_OD=     19.4146372 O_TOT=     36.4002685 <-- SPRD
 Delta: O_D= -0.1784206E+00 O_OD= -0.1280101E+00 O_TOT= -0.3064306E+00 <-- DLTA
 ------------------------------------------------------------------------------
 Cycle:     21
  WF centre and spread    1  (  0.001873, -0.004432,  0.003975 )     2.18288837
  WF centre and spread    2  ( -0.006289,  0.003881,  0.005956 )     4.79259387
  WF centre and spread    3  (  0.005466, -0.015861,  0.009419 )     4.87788696
  WF centre and spread    4  (  0.008834,  0.003556, -0.003820 )     4.46236332
  WF centre and spread    5  ( -0.000006, -0.000002,  0.000123 )     0.37866499
  WF centre and spread    6  (  0.000241,  0.000088, -0.000041 )     0.37867084
  WF centre and spread    7  ( -0.000033, -0.000251, -0.000050 )     0.37696860
  WF centre and spread    8  (  0.000026, -0.000214, -0.000055 )     0.38083305
  WF centre and spread    9  (  0.000097,  0.000055, -0.000066 )     0.38076309
  WF centre and spread   10  (  2.483072, -0.000580,  0.006759 )     2.27130565
  WF centre and spread   11  (  2.467723, -0.000832, -0.041881 )     4.47215602
  WF centre and spread   12  (  2.484770,  0.008983, -0.011447 )     4.66379116
  WF centre and spread   13  (  2.482588, -0.016332,  0.018260 )     4.78945686
  WF centre and spread   14  (  2.479017, -0.000061,  0.000325 )     0.37617573
  WF centre and spread   15  (  2.479044,  0.000076, -0.000085 )     0.37641205
  WF centre and spread   16  (  2.478857, -0.000205, -0.000130 )     0.37438334
  WF centre and spread   17  (  2.479077,  0.000120,  0.000027 )     0.37978585
  WF centre and spread   18  (  2.479151,  0.000009, -0.000063 )     0.37627868
  Sum of centres and spreads ( 22.323508, -0.022002, -0.012793 )    36.29137842

     21    -0.109E+00     1.7247209724       36.2913784212       1.84  <-- CONV
        O_D=      0.2211484 O_OD=     19.3583394 O_TOT=     36.2913784 <-- SPRD
 Delta: O_D= -0.5259229E-01 O_OD= -0.5629783E-01 O_TOT= -0.1088901E+00 <-- DLTA
 ------------------------------------------------------------------------------
 Cycle:     22
  WF centre and spread    1  (  0.002123, -0.004612,  0.004009 )     2.17256501
  WF centre and spread    2  ( -0.006352,  0.004811,  0.005455 )     4.76305927
  WF centre and spread    3  (  0.005223, -0.016748,  0.008895 )     4.85852452
  WF centre and spread    4  (  0.006418,  0.010930,  0.001154 )     4.44466332
  WF centre and spread    5  (  0.000001, -0.000009,  0.000132 )     0.37827148
  WF centre and spread    6  (  0.000235,  0.000085, -0.000038 )     0.37820508
  WF centre and spread    7  ( -0.000031, -0.000245, -0.000056 )     0.37646261
  WF centre and spread    8  (  0.000022, -0.000220, -0.000054 )     0.38037408
  WF centre and spread    9  (  0.000094,  0.000057, -0.000066 )     0.38033750
  WF centre and spread   10  (  2.483250, -0.000699,  0.006533 )     2.26061340
  WF centre and spread   11  (  2.470041,  0.005831, -0.033647 )     4.43272607
  WF centre and spread   12  (  2.486017,  0.008714, -0.012659 )     4.65084173
  WF centre and spread   13  (  2.485901, -0.013652,  0.009309 )     4.79616762
  WF centre and spread   14  (  2.479021, -0.000067,  0.000320 )     0.37581702
  WF centre and spread   15  (  2.479050,  0.000074, -0.000082 )     0.37594430
  WF centre and spread   16  (  2.478863, -0.000209, -0.000121 )     0.37385283
  WF centre and spread   17  (  2.479079,  0.000114,  0.000027 )     0.37932145
  WF centre and spread   18  (  2.479154,  0.000009, -0.000063 )     0.37582148
  Sum of centres and spreads ( 22.328109, -0.005833, -0.010951 )    36.15356876

     22    -0.138E+00     1.2243301128       36.1535687623       1.93  <-- CONV
        O_D=      0.1967844 O_OD=     19.2448937 O_TOT=     36.1535688 <-- SPRD
 Delta: O_D= -0.2436397E-01 O_OD= -0.1134457E+00 O_TOT= -0.1378097E+00 <-- DLTA
 ------------------------------------------------------------------------------
 Cycle:     23
  WF centre and spread    1  (  0.002133, -0.004744,  0.004358 )     2.15770857
  WF centre and spread    2  ( -0.009720,  0.008903,  0.007069 )     4.73723754
  WF centre and spread    3  ( -0.005256, -0.016281,  0.013082 )     4.83555424
  WF centre and spread    4  (  0.005756,  0.016846,  0.005882 )     4.43848739
  WF centre and spread    5  (  0.000010, -0.000019,  0.000142 )     0.37773420
  WF centre and spread    6  (  0.000225,  0.000082, -0.000035 )     0.37755054
  WF centre and spread    7  ( -0.000027, -0.000237, -0.000059 )     0.37574693
  WF centre and spread    8  (  0.000020, -0.000219, -0.000052 )     0.37970543
  WF centre and spread    9  (  0.000085,  0.000061, -0.000064 )     0.37972577
  WF centre and spread   10  (  2.483132, -0.000677,  0.006523 )     2.24452709
  WF centre and spread   11  (  2.465924,  0.015172, -0.019389 )     4.42517801
  WF centre and spread   12  (  2.473236,  0.007977, -0.008666 )     4.63299459
  WF centre and spread   13  (  2.470604,  0.007733,  0.018334 )     4.80114884
  WF centre and spread   14  (  2.479026, -0.000076,  0.000315 )     0.37531280
  WF centre and spread   15  (  2.479057,  0.000071, -0.000081 )     0.37529249
  WF centre and spread   16  (  2.478871, -0.000213, -0.000118 )     0.37311534
  WF centre and spread   17  (  2.479087,  0.000111,  0.000025 )     0.37863893
  WF centre and spread   18  (  2.479151,  0.000012, -0.000060 )     0.37517516
  Sum of centres and spreads ( 22.281316,  0.034503,  0.027203 )    36.04083387

     23    -0.113E+00     1.1656047924       36.0408338663       2.02  <-- CONV
        O_D=      0.2416405 O_OD=     19.0873028 O_TOT=     36.0408339 <-- SPRD
 Delta: O_D=  0.4485602E-01 O_OD= -0.1575909E+00 O_TOT= -0.1127349E+00 <-- DLTA
 ------------------------------------------------------------------------------
 Cycle:     24
  WF centre and spread    1  (  0.002250, -0.004910,  0.004630 )     2.13873471
  WF centre and spread    2  ( -0.011294,  0.013314,  0.008920 )     4.73267137
  WF centre and spread    3  ( -0.007494, -0.016629,  0.014884 )     4.80513506
  WF centre and spread    4  (  0.008667,  0.017073,  0.006522 )     4.42408648
  WF centre and spread    5  (  0.000018, -0.000030,  0.000151 )     0.37707786
  WF centre and spread    6  (  0.000213,  0.000079, -0.000031 )     0.37671639
  WF centre and spread    7  ( -0.000022, -0.000229, -0.000059 )     0.37483721
  WF centre and spread    8  (  0.000020, -0.000217, -0.000049 )     0.37886369
  WF centre and spread    9  (  0.000075,  0.000067, -0.000062 )     0.37894856
  WF centre and spread   10  (  2.483305, -0.000572,  0.006395 )     2.22390951
  WF centre and spread   11  (  2.463718,  0.023681, -0.002045 )     4.45861002
  WF centre and spread   12  (  2.467050,  0.007146, -0.005837 )     4.60924038
  WF centre and spread   13  (  2.479940, -0.002396,  0.020636 )     4.77381793
  WF centre and spread   14  (  2.479028, -0.000083,  0.000311 )     0.37467892
  WF centre and spread   15  (  2.479064,  0.000067, -0.000081 )     0.37447382
  WF centre and spread   16  (  2.478880, -0.000215, -0.000114 )     0.37218916
  WF centre and spread   17  (  2.479095,  0.000119,  0.000026 )     0.37778017
  WF centre and spread   18  (  2.479141,  0.000019, -0.000056 )     0.37435995
  Sum of centres and spreads ( 22.281653,  0.036285,  0.054140 )    35.92613120

     24    -0.115E+00     1.6529643651       35.9261311984       2.11  <-- CONV
        O_D=      0.3195526 O_OD=     18.8946880 O_TOT=     35.9261312 <-- SPRD
 Delta: O_D=  0.7791209E-01 O_OD= -0.1926148E+00 O_TOT= -0.1147027E+00 <-- DLTA
 ------------------------------------------------------------------------------
 Cycle:     25
  WF centre and spread    1  (  0.002029, -0.004926,  0.004564 )     2.13709602
  WF centre and spread    2  ( -0.008981,  0.010765,  0.007494 )     4.71732568
  WF centre and spread    3  ( -0.000825, -0.017362,  0.012803 )     4.79562010
  WF centre and spread    4  (  0.010197,  0.012012,  0.002509 )     4.41088962
  WF centre and spread    5  (  0.000012, -0.000026,  0.000150 )     0.37701322
  WF centre and spread    6  (  0.000215,  0.000080, -0.000031 )     0.37663631
  WF centre and spread    7  ( -0.000024, -0.000230, -0.000056 )     0.37474469
  WF centre and spread    8  (  0.000020, -0.000214, -0.000050 )     0.37878197
  WF centre and spread    9  (  0.000074,  0.000065, -0.000062 )     0.37887722
  WF centre and spread   10  (  2.482983, -0.000531,  0.006731 )     2.22198545
  WF centre and spread   11  (  2.466689,  0.019004, -0.012289 )     4.40905772
  WF centre and spread   12  (  2.477928,  0.007676, -0.007433 )     4.59514327
  WF centre and spread   13  (  2.463974, -0.000967,  0.025909 )     4.76882988
  WF centre and spread   14  (  2.479025, -0.000082,  0.000313 )     0.37461445
  WF centre and spread   15  (  2.479060,  0.000068, -0.000079 )     0.37439525
  WF centre and spread   16  (  2.478877, -0.000211, -0.000116 )     0.37209722
  WF centre and spread   17  (  2.479093,  0.000119,  0.000026 )     0.37770529
  WF centre and spread   18  (  2.479142,  0.000020, -0.000054 )     0.37428167
  Sum of centres and spreads ( 22.289489,  0.025261,  0.040330 )    35.81509504

     25    -0.111E+00     1.6609819848       35.8150950395       2.19  <-- CONV
        O_D=      0.2253320 O_OD=     18.8778724 O_TOT=     35.8150950 <-- SPRD
 Delta: O_D= -0.9422051E-01 O_OD= -0.1681565E-01 O_TOT= -0.1110362E+00 <-- DLTA
 ------------------------------------------------------------------------------
 Cycle:     26
  WF centre and spread    1  (  0.002070, -0.005012,  0.004349 )     2.13461577
  WF centre and spread    2  ( -0.004843,  0.007146,  0.005188 )     4.70458995
  WF centre and spread    3  (  0.001633, -0.017102,  0.011503 )     4.78845453
  WF centre and spread    4  (  0.011527,  0.007632, -0.001581 )     4.40330425
  WF centre and spread    5  (  0.000007, -0.000023,  0.000148 )     0.37691800
  WF centre and spread    6  (  0.000216,  0.000081, -0.000031 )     0.37651645
  WF centre and spread    7  ( -0.000026, -0.000233, -0.000052 )     0.37460684
  WF centre and spread    8  (  0.000022, -0.000213, -0.000050 )     0.37866148
  WF centre and spread    9  (  0.000073,  0.000064, -0.000063 )     0.37876894
  WF centre and spread   10  (  2.483233, -0.000574,  0.006812 )     2.21954948
  WF centre and spread   11  (  2.468304,  0.011186, -0.022729 )     4.37798712
  WF centre and spread   12  (  2.481659,  0.007812, -0.009535 )     4.58737124
  WF centre and spread   13  (  2.484040, -0.019782,  0.016099 )     4.75298202
  WF centre and spread   14  (  2.479023, -0.000080,  0.000315 )     0.37451966
  WF centre and spread   15  (  2.479057,  0.000070, -0.000079 )     0.37427696
  WF centre and spread   16  (  2.478875, -0.000205, -0.000115 )     0.37195997
  WF centre and spread   17  (  2.479095,  0.000123,  0.000027 )     0.37759302
  WF centre and spread   18  (  2.479137,  0.000022, -0.000054 )     0.37416500
  Sum of centres and spreads ( 22.323103, -0.009086,  0.010153 )    35.72684067

     26    -0.883E-01     1.5720336166       35.7268406719       2.27  <-- CONV
        O_D=      0.1625887 O_OD=     18.8523613 O_TOT=     35.7268407 <-- SPRD
 Delta: O_D= -0.6274333E-01 O_OD= -0.2551104E-01 O_TOT= -0.8825437E-01 <-- DLTA
 ------------------------------------------------------------------------------
 Cycle:     27
  WF centre and spread    1  (  0.002020, -0.005116,  0.004278 )     2.13133625
  WF centre and spread    2  ( -0.002041,  0.003943,  0.003420 )     4.69963103
  WF centre and spread    3  ( -0.001225, -0.016108,  0.012319 )     4.78033420
  WF centre and spread    4  (  0.011328,  0.006827, -0.002480 )     4.39649136
  WF centre and spread    5  (  0.000004, -0.000022,  0.000146 )     0.37680318
  WF centre and spread    6  (  0.000216,  0.000082, -0.000031 )     0.37636897
  WF centre and spread    7  ( -0.000028, -0.000235, -0.000048 )     0.37443819
  WF centre and spread    8  (  0.000027, -0.000211, -0.000050 )     0.37851481
  WF centre and spread    9  (  0.000071,  0.000062, -0.000064 )     0.37863383
  WF centre and spread   10  (  2.483304, -0.000637,  0.006981 )     2.21636037
  WF centre and spread   11  (  2.467626,  0.003958, -0.029667 )     4.37135887
  WF centre and spread   12  (  2.477017,  0.006915, -0.008688 )     4.57859389
  WF centre and spread   13  (  2.483058, -0.018345,  0.015162 )     4.73253365
  WF centre and spread   14  (  2.479022, -0.000081,  0.000315 )     0.37440509
  WF centre and spread   15  (  2.479055,  0.000071, -0.000080 )     0.37413143
  WF centre and spread   16  (  2.478874, -0.000199, -0.000115 )     0.37179192
  WF centre and spread   17  (  2.479099,  0.000124,  0.000027 )     0.37745208
  WF centre and spread   18  (  2.479134,  0.000025, -0.000054 )     0.37402388
  Sum of centres and spreads ( 22.316562, -0.018946,  0.001372 )    35.66320299

     27    -0.636E-01     1.2700639053       35.6632029893       2.36  <-- CONV
        O_D=      0.1315160 O_OD=     18.8197964 O_TOT=     35.6632030 <-- SPRD
 Delta: O_D= -0.3107277E-01 O_OD= -0.3256491E-01 O_TOT= -0.6363768E-01 <-- DLTA
 ------------------------------------------------------------------------------
 Cycle:     28
  WF centre and spread    1  (  0.002005, -0.005287,  0.004383 )     2.12053235
  WF centre and spread    2  ( -0.002201,  0.000914,  0.002009 )     4.68538473
  WF centre and spread    3  ( -0.005705, -0.013153,  0.014099 )     4.76183208
  WF centre and spread    4  (  0.008099,  0.013912,  0.004528 )     4.38454172
  WF centre and spread    5  (  0.000003, -0.000023,  0.000143 )     0.37647747
  WF centre and spread    6  (  0.000215,  0.000082, -0.000029 )     0.37594033
  WF centre and spread    7  ( -0.000030, -0.000238, -0.000041 )     0.37395073
  WF centre and spread    8  (  0.000036, -0.000210, -0.000048 )     0.37808451
  WF centre and spread    9  (  0.000069,  0.000059, -0.000066 )     0.37823616
  WF centre and spread   10  (  2.483436, -0.000798,  0.007233 )     2.20474472
  WF centre and spread   11  (  2.464784, -0.000977, -0.032474 )     4.37037508
  WF centre and spread   12  (  2.470897,  0.006411, -0.003533 )     4.56693683
  WF centre and spread   13  (  2.476638, -0.000504,  0.019146 )     4.73682313
  WF centre and spread   14  (  2.479021, -0.000087,  0.000315 )     0.37407622
  WF centre and spread   15  (  2.479054,  0.000072, -0.000084 )     0.37370923
  WF centre and spread   16  (  2.478873, -0.000192, -0.000116 )     0.37130513
  WF centre and spread   17  (  2.479108,  0.000119,  0.000029 )     0.37703878
  WF centre and spread   18  (  2.479126,  0.000029, -0.000054 )     0.37361880
  Sum of centres and spreads ( 22.293429,  0.000130,  0.015439 )    35.58360799

     28    -0.796E-01     0.7811405710       35.5836079919       2.44  <-- CONV
        O_D=      0.1528698 O_OD=     18.7188476 O_TOT=     35.5836080 <-- SPRD
 Delta: O_D=  0.2135384E-01 O_OD= -0.1009488E+00 O_TOT= -0.7959500E-01 <-- DLTA
 ------------------------------------------------------------------------------
 Cycle:     29
  WF centre and spread    1  (  0.002128, -0.005413,  0.004446 )     2.10031810
  WF centre and spread    2  ( -0.005085, -0.003025, -0.000706 )     4.67133352
  WF centre and spread    3  ( -0.007052, -0.008710,  0.014598 )     4.73926334
  WF centre and spread    4  (  0.004962,  0.014180,  0.002921 )     4.38547670
  WF centre and spread    5  (  0.000004, -0.000025,  0.000138 )     0.37589574
  WF centre and spread    6  (  0.000210,  0.000081, -0.000026 )     0.37514417
  WF centre and spread    7  ( -0.000030, -0.000241, -0.000025 )     0.37304889
  WF centre and spread    8  (  0.000051, -0.000207, -0.000046 )     0.37730450
  WF centre and spread    9  (  0.000066,  0.000056, -0.000067 )     0.37749741
  WF centre and spread   10  (  2.483611, -0.001007,  0.007404 )     2.18238727
  WF centre and spread   11  (  2.478761, -0.000130, -0.032809 )     4.37244360
  WF centre and spread   12  (  2.473967,  0.009616, -0.000851 )     4.55893429
  WF centre and spread   13  (  2.474204,  0.001102,  0.008021 )     4.74157269
  WF centre and spread   14  (  2.479019, -0.000092,  0.000316 )     0.37347979
  WF centre and spread   15  (  2.479044,  0.000072, -0.000085 )     0.37293169
  WF centre and spread   16  (  2.478874, -0.000186, -0.000115 )     0.37039842
  WF centre and spread   17  (  2.479116,  0.000121,  0.000031 )     0.37628478
  WF centre and spread   18  (  2.479110,  0.000037, -0.000052 )     0.37287242
  Sum of centres and spreads ( 22.300961,  0.006229,  0.003093 )    35.49658733

     29    -0.870E-01     1.2135676472       35.4965873277       2.53  <-- CONV
        O_D=      0.2467514 O_OD=     18.5379453 O_TOT=     35.4965873 <-- SPRD
 Delta: O_D=  0.9388161E-01 O_OD= -0.1809023E+00 O_TOT= -0.8702066E-01 <-- DLTA
 ------------------------------------------------------------------------------
 Cycle:     30
  WF centre and spread    1  (  0.002097, -0.005351,  0.004521 )     2.10111245
  WF centre and spread    2  ( -0.006034, -0.001957,  0.000198 )     4.67020561
  WF centre and spread    3  ( -0.007944, -0.008725,  0.015015 )     4.73728819
  WF centre and spread    4  (  0.006444,  0.013729,  0.005367 )     4.38512197
  WF centre and spread    5  (  0.000004, -0.000025,  0.000138 )     0.37588697
  WF centre and spread    6  (  0.000210,  0.000081, -0.000026 )     0.37513184
  WF centre and spread    7  ( -0.000030, -0.000240, -0.000025 )     0.37303340
  WF centre and spread    8  (  0.000051, -0.000205, -0.000046 )     0.37729385
  WF centre and spread    9  (  0.000066,  0.000056, -0.000066 )     0.37748553
  WF centre and spread   10  (  2.483603, -0.000923,  0.007425 )     2.18266029
  WF centre and spread   11  (  2.470763,  0.002871, -0.032316 )     4.36070539
  WF centre and spread   12  (  2.472100,  0.009750, -0.000544 )     4.55269732
  WF centre and spread   13  (  2.476468, -0.000231,  0.021652 )     4.72644506
  WF centre and spread   14  (  2.479018, -0.000090,  0.000314 )     0.37347988
  WF centre and spread   15  (  2.479046,  0.000072, -0.000085 )     0.37291622
  WF centre and spread   16  (  2.478874, -0.000186, -0.000118 )     0.37039368
  WF centre and spread   17  (  2.479117,  0.000124,  0.000032 )     0.37627691
  WF centre and spread   18  (  2.479110,  0.000037, -0.000051 )     0.37285883
  Sum of centres and spreads ( 22.292964,  0.008786,  0.021385 )    35.46099339

     30    -0.356E-01     4.8300581772       35.4609933949       2.61  <-- CONV
        O_D=      0.2098609 O_OD=     18.5392419 O_TOT=     35.4609934 <-- SPRD
 Delta: O_D= -0.3689046E-01 O_OD=  0.1296529E-02 O_TOT= -0.3559393E-01 <-- DLTA
 ------------------------------------------------------------------------------
 Cycle:     31
  WF centre and spread    1  (  0.002122, -0.005381,  0.004406 )     2.09978717
  WF centre and spread    2  ( -0.006684,  0.001735,  0.002664 )     4.65844879
  WF centre and spread    3  ( -0.010825, -0.009738,  0.015888 )     4.73337358
  WF centre and spread    4  (  0.005964,  0.006474, -0.008002 )     4.37283389
  WF centre and spread    5  (  0.000005, -0.000027,  0.000139 )     0.37582717
  WF centre and spread    6  (  0.000208,  0.000079, -0.000025 )     0.37505008
  WF centre and spread    7  ( -0.000028, -0.000237, -0.000022 )     0.37293869
  WF centre and spread    8  (  0.000050, -0.000205, -0.000047 )     0.37721298
  WF centre and spread    9  (  0.000065,  0.000058, -0.000065 )     0.37741099
  WF centre and spread   10  (  2.483572, -0.000935,  0.007293 )     2.18059051
  WF centre and spread   11  (  2.466711,  0.003153, -0.034057 )     4.34058562
  WF centre and spread   12  (  2.465832,  0.009488, -0.000478 )     4.55229276
  WF centre and spread   13  (  2.484133, -0.016596,  0.014306 )     4.69321061
  WF centre and spread   14  (  2.479019, -0.000088,  0.000317 )     0.37343878
  WF centre and spread   15  (  2.479045,  0.000069, -0.000084 )     0.37283941
  WF centre and spread   16  (  2.478875, -0.000186, -0.000118 )     0.37030671
  WF centre and spread   17  (  2.479117,  0.000129,  0.000030 )     0.37620255
  WF centre and spread   18  (  2.479109,  0.000039, -0.000050 )     0.37277970
  Sum of centres and spreads ( 22.286289, -0.012168,  0.002097 )    35.37512999

     31    -0.859E-01     1.3886795032       35.3751299891       2.69  <-- CONV
        O_D=      0.1399100 O_OD=     18.5233294 O_TOT=     35.3751300 <-- SPRD
 Delta: O_D= -0.6995098E-01 O_OD= -0.1591242E-01 O_TOT= -0.8586341E-01 <-- DLTA
 ------------------------------------------------------------------------------
 Cycle:     32
  WF centre and spread    1  (  0.002192, -0.005360,  0.004379 )     2.09773356
  WF centre and spread    2  ( -0.006821,  0.004919,  0.004546 )     4.65103608
  WF centre and spread    3  ( -0.005162, -0.011589,  0.013743 )     4.72489596
  WF centre and spread    4  (  0.010425,  0.004017, -0.006719 )     4.36154321
  WF centre and spread    5  (  0.000007, -0.000028,  0.000139 )     0.37575725
  WF centre and spread    6  (  0.000205,  0.000077, -0.000023 )     0.37495143
  WF centre and spread    7  ( -0.000027, -0.000234, -0.000023 )     0.37282442
  WF centre and spread    8  (  0.000047, -0.000207, -0.000046 )     0.37711681
  WF centre and spread    9  (  0.000065,  0.000059, -0.000063 )     0.37732100
  WF centre and spread   10  (  2.483555, -0.000909,  0.007203 )     2.17814076
  WF centre and spread   11  (  2.472328,  0.010183, -0.028480 )     4.33529631
  WF centre and spread   12  (  2.473764,  0.007280, -0.003511 )     4.53900771
  WF centre and spread   13  (  2.486499, -0.022891,  0.013347 )     4.69693979
  WF centre and spread   14  (  2.479018, -0.000087,  0.000320 )     0.37338350
  WF centre and spread   15  (  2.479044,  0.000068, -0.000081 )     0.37274951
  WF centre and spread   16  (  2.478878, -0.000190, -0.000117 )     0.37019797
  WF centre and spread   17  (  2.479115,  0.000130,  0.000031 )     0.37611631
  WF centre and spread   18  (  2.479109,  0.000041, -0.000049 )     0.37268714
  Sum of centres and spreads ( 22.312240, -0.014720,  0.004596 )    35.32769873

     32    -0.474E-01     1.2477289919       35.3276987302       2.79  <-- CONV
        O_D=      0.1143078 O_OD=     18.5015003 O_TOT=     35.3276987 <-- SPRD
 Delta: O_D= -0.2560216E-01 O_OD= -0.2182910E-01 O_TOT= -0.4743126E-01 <-- DLTA
 ------------------------------------------------------------------------------
 Cycle:     33
  WF centre and spread    1  (  0.002190, -0.005398,  0.004369 )     2.09625681
  WF centre and spread    2  ( -0.007117,  0.006696,  0.005559 )     4.64747137
  WF centre and spread    3  ( -0.002053, -0.012785,  0.012886 )     4.72194978
  WF centre and spread    4  (  0.011760,  0.005095, -0.005077 )     4.35820445
  WF centre and spread    5  (  0.000007, -0.000030,  0.000140 )     0.37571004
  WF centre and spread    6  (  0.000203,  0.000077, -0.000022 )     0.37488191
  WF centre and spread    7  ( -0.000026, -0.000232, -0.000024 )     0.37274500
  WF centre and spread    8  (  0.000045, -0.000209, -0.000045 )     0.37705065
  WF centre and spread    9  (  0.000064,  0.000059, -0.000062 )     0.37725887
  WF centre and spread   10  (  2.483552, -0.000912,  0.007191 )     2.17625269
  WF centre and spread   11  (  2.465127,  0.009462, -0.029255 )     4.32911628
  WF centre and spread   12  (  2.477234,  0.006101, -0.004762 )     4.53653531
  WF centre and spread   13  (  2.486086, -0.022163,  0.013989 )     4.69534433
  WF centre and spread   14  (  2.479018, -0.000088,  0.000321 )     0.37334293
  WF centre and spread   15  (  2.479045,  0.000067, -0.000081 )     0.37268421
  WF centre and spread   16  (  2.478879, -0.000189, -0.000116 )     0.37012232
  WF centre and spread   17  (  2.479114,  0.000129,  0.000031 )     0.37605595
  WF centre and spread   18  (  2.479109,  0.000042, -0.000049 )     0.37262293
  Sum of centres and spreads ( 22.312237, -0.014280,  0.004992 )    35.30360584

     33    -0.241E-01     1.1897560248       35.3036058370       2.89  <-- CONV
        O_D=      0.1060653 O_OD=     18.4856499 O_TOT=     35.3036058 <-- SPRD
 Delta: O_D= -0.8242484E-02 O_OD= -0.1585041E-01 O_TOT= -0.2409289E-01 <-- DLTA
 ------------------------------------------------------------------------------
 Cycle:     34
  WF centre and spread    1  (  0.002206, -0.005451,  0.004442 )     2.09222865
  WF centre and spread    2  ( -0.004678,  0.008072,  0.005370 )     4.64175865
  WF centre and spread    3  ( -0.001002, -0.014149,  0.012283 )     4.71409414
  WF centre and spread    4  (  0.011494,  0.011270, -0.000909 )     4.34938825
  WF centre and spread    5  (  0.000009, -0.000034,  0.000143 )     0.37559542
  WF centre and spread    6  (  0.000199,  0.000076, -0.000020 )     0.37471602
  WF centre and spread    7  ( -0.000024, -0.000227, -0.000027 )     0.37255797
  WF centre and spread    8  (  0.000042, -0.000212, -0.000045 )     0.37689484
  WF centre and spread    9  (  0.000063,  0.000060, -0.000061 )     0.37711095
  WF centre and spread   10  (  2.483564, -0.000933,  0.007137 )     2.17127162
  WF centre and spread   11  (  2.478445,  0.007768, -0.026410 )     4.33996005
[...]
        O_D=      0.1060982 O_OD=     17.9499614 O_TOT=     34.7679502 <-- SPRD
 Delta: O_D= -0.2058978E-01 O_OD= -0.6399858E-03 O_TOT= -0.2122977E-01 <-- DLTA
 ------------------------------------------------------------------------------
 Cycle:     92
  WF centre and spread    1  (  0.001943, -0.005728,  0.004564 )     2.03989262
  WF centre and spread    2  ( -0.001987,  0.003278, -0.002296 )     4.55814319
  WF centre and spread    3  ( -0.002284, -0.013634,  0.011849 )     4.63022495
  WF centre and spread    4  (  0.009883,  0.012325, -0.000689 )     4.29360610
  WF centre and spread    5  ( -0.000001, -0.000038,  0.000167 )     0.37417546
  WF centre and spread    6  (  0.000175,  0.000064, -0.000012 )     0.37256693
  WF centre and spread    7  ( -0.000024, -0.000196,  0.000004 )     0.37007833
  WF centre and spread    8  (  0.000042, -0.000189, -0.000041 )     0.37499113
  WF centre and spread    9  (  0.000038,  0.000060, -0.000049 )     0.37522767
  WF centre and spread   10  (  2.483100, -0.001059,  0.008143 )     2.10772937
  WF centre and spread   11  (  2.468672,  0.011127, -0.027830 )     4.26064013
  WF centre and spread   12  (  2.474786,  0.003735, -0.005281 )     4.48266883
  WF centre and spread   13  (  2.473169, -0.004256,  0.020834 )     4.65725639
  WF centre and spread   14  (  2.479023, -0.000119,  0.000290 )     0.37197999
  WF centre and spread   15  (  2.479035,  0.000053, -0.000074 )     0.37048061
  WF centre and spread   16  (  2.478893, -0.000167, -0.000096 )     0.36751331
  WF centre and spread   17  (  2.479119,  0.000122,  0.000025 )     0.37407257
  WF centre and spread   18  (  2.479086,  0.000066, -0.000049 )     0.37058151
  Sum of centres and spreads ( 22.302666,  0.005444,  0.009461 )    34.75182907

     92    -0.161E-01     1.8085394595       34.7518290725       7.84  <-- CONV
        O_D=      0.0915448 O_OD=     17.9483937 O_TOT=     34.7518291 <-- SPRD
 Delta: O_D= -0.1455339E-01 O_OD= -0.1567744E-02 O_TOT= -0.1612114E-01 <-- DLTA
 ------------------------------------------------------------------------------
 Cycle:     93
  WF centre and spread    1  (  0.001951, -0.005740,  0.004549 )     2.03976312
  WF centre and spread    2  ( -0.001597,  0.003379, -0.001397 )     4.55658143
  WF centre and spread    3  ( -0.002150, -0.013722,  0.011783 )     4.62972564
  WF centre and spread    4  (  0.008104,  0.009959, -0.000053 )     4.29378240
  WF centre and spread    5  ( -0.000000, -0.000039,  0.000166 )     0.37417196
  WF centre and spread    6  (  0.000174,  0.000064, -0.000012 )     0.37256242
  WF centre and spread    7  ( -0.000024, -0.000196,  0.000004 )     0.37007256
  WF centre and spread    8  (  0.000042, -0.000189, -0.000041 )     0.37498676
  WF centre and spread    9  (  0.000038,  0.000060, -0.000049 )     0.37522314
  WF centre and spread   10  (  2.483102, -0.001088,  0.008134 )     2.10757261
  WF centre and spread   11  (  2.473370,  0.008707, -0.028378 )     4.25775299
  WF centre and spread   12  (  2.475196,  0.004145, -0.004484 )     4.48042931
  WF centre and spread   13  (  2.475128,  0.003045,  0.011802 )     4.66374023
  WF centre and spread   14  (  2.479022, -0.000119,  0.000291 )     0.37197700
  WF centre and spread   15  (  2.479034,  0.000053, -0.000074 )     0.37047631
  WF centre and spread   16  (  2.478894, -0.000167, -0.000095 )     0.36750784
  WF centre and spread   17  (  2.479118,  0.000121,  0.000025 )     0.37406799
  WF centre and spread   18  (  2.479085,  0.000066, -0.000048 )     0.37057750
  Sum of centres and spreads ( 22.308488,  0.008338,  0.002122 )    34.75097124

     93    -0.858E-03     1.6925900654       34.7509712367       7.92  <-- CONV
        O_D=      0.0917463 O_OD=     17.9473343 O_TOT=     34.7509712 <-- SPRD
 Delta: O_D=  0.2015719E-03 O_OD= -0.1059408E-02 O_TOT= -0.8578358E-03 <-- DLTA
 ------------------------------------------------------------------------------
 Cycle:     94
  WF centre and spread    1  (  0.001964, -0.005769,  0.004527 )     2.03944248
  WF centre and spread    2  ( -0.001182,  0.003629,  0.000701 )     4.55502560
  WF centre and spread    3  ( -0.001634, -0.013905,  0.011616 )     4.62891967
  WF centre and spread    4  (  0.007412,  0.008978, -0.000394 )     4.29611963
  WF centre and spread    5  (  0.000000, -0.000040,  0.000166 )     0.37416525
  WF centre and spread    6  (  0.000174,  0.000064, -0.000012 )     0.37255144
  WF centre and spread    7  ( -0.000024, -0.000195,  0.000004 )     0.37005859
  WF centre and spread    8  (  0.000042, -0.000189, -0.000041 )     0.37497715
  WF centre and spread    9  (  0.000037,  0.000060, -0.000049 )     0.37521210
  WF centre and spread   10  (  2.483105, -0.001109,  0.008117 )     2.10713993
  WF centre and spread   11  (  2.479045,  0.005793, -0.027997 )     4.26223220
  WF centre and spread   12  (  2.476629,  0.004786, -0.002951 )     4.47947259
  WF centre and spread   13  (  2.474144, -0.000837,  0.009762 )     4.65899013
  WF centre and spread   14  (  2.479021, -0.000119,  0.000294 )     0.37196917
  WF centre and spread   15  (  2.479033,  0.000053, -0.000075 )     0.37046578
  WF centre and spread   16  (  2.478894, -0.000167, -0.000094 )     0.36749489
  WF centre and spread   17  (  2.479118,  0.000120,  0.000025 )     0.37405702
  WF centre and spread   18  (  2.479085,  0.000067, -0.000048 )     0.37056834
  Sum of centres and spreads ( 22.314863,  0.001219,  0.003552 )    34.74886198

     94    -0.211E-02     2.3244703982       34.7488619812       8.00  <-- CONV
        O_D=      0.0918725 O_OD=     17.9450988 O_TOT=     34.7488620 <-- SPRD
 Delta: O_D=  0.1261935E-03 O_OD= -0.2235449E-02 O_TOT= -0.2109255E-02 <-- DLTA
 ------------------------------------------------------------------------------
 Cycle:     95
  WF centre and spread    1  (  0.001975, -0.005828,  0.004524 )     2.03885858
  WF centre and spread    2  ( -0.002170,  0.003973,  0.003696 )     4.55700641
  WF centre and spread    3  (  0.000002, -0.014214,  0.011205 )     4.62783821
  WF centre and spread    4  (  0.010708,  0.013912, -0.002139 )     4.29492522
  WF centre and spread    5  (  0.000001, -0.000041,  0.000165 )     0.37415199
  WF centre and spread    6  (  0.000173,  0.000063, -0.000011 )     0.37252742
  WF centre and spread    7  ( -0.000024, -0.000194,  0.000005 )     0.37003007
  WF centre and spread    8  (  0.000041, -0.000191, -0.000040 )     0.37495839
  WF centre and spread    9  (  0.000037,  0.000060, -0.000048 )     0.37518870
  WF centre and spread   10  (  2.483120, -0.001111,  0.008092 )     2.10629628
  WF centre and spread   11  (  2.474530,  0.007807, -0.023369 )     4.25344901
  WF centre and spread   12  (  2.480922,  0.004590, -0.001726 )     4.48159712
  WF centre and spread   13  (  2.473449, -0.003632,  0.013764 )     4.64622728
  WF centre and spread   14  (  2.479020, -0.000118,  0.000296 )     0.37195468
  WF centre and spread   15  (  2.479034,  0.000052, -0.000076 )     0.37044161
  WF centre and spread   16  (  2.478895, -0.000167, -0.000094 )     0.36746853
  WF centre and spread   17  (  2.479116,  0.000120,  0.000025 )     0.37403717
  WF centre and spread   18  (  2.479085,  0.000067, -0.000047 )     0.37054926
  Sum of centres and spreads ( 22.317916,  0.005150,  0.014221 )    34.72750592

     95    -0.214E-01     2.0570297926       34.7275059216       8.09  <-- CONV
        O_D=      0.0748895 O_OD=     17.9407258 O_TOT=     34.7275059 <-- SPRD
 Delta: O_D= -0.1698300E-01 O_OD= -0.4373055E-02 O_TOT= -0.2135606E-01 <-- DLTA
 ------------------------------------------------------------------------------
 Cycle:     96
  WF centre and spread    1  (  0.001982, -0.005803,  0.004562 )     2.03825881
  WF centre and spread    2  ( -0.003316,  0.002171,  0.001561 )     4.55492015
  WF centre and spread    3  (  0.000568, -0.014214,  0.010996 )     4.62698521
  WF centre and spread    4  (  0.008739,  0.010354, -0.001972 )     4.29463394
  WF centre and spread    5  (  0.000001, -0.000041,  0.000166 )     0.37414115
  WF centre and spread    6  (  0.000173,  0.000063, -0.000011 )     0.37250936
  WF centre and spread    7  ( -0.000024, -0.000193,  0.000006 )     0.37000830
  WF centre and spread    8  (  0.000041, -0.000189, -0.000040 )     0.37494218
  WF centre and spread    9  (  0.000037,  0.000060, -0.000048 )     0.37517130
  WF centre and spread   10  (  2.483167, -0.001122,  0.008061 )     2.10560839
  WF centre and spread   11  (  2.471927,  0.008823, -0.023019 )     4.25211840
  WF centre and spread   12  (  2.482037,  0.002282, -0.002255 )     4.48015306
  WF centre and spread   13  (  2.474631, -0.001709,  0.016603 )     4.64243997
  WF centre and spread   14  (  2.479020, -0.000119,  0.000293 )     0.37194741
  WF centre and spread   15  (  2.479034,  0.000052, -0.000076 )     0.37042346
  WF centre and spread   16  (  2.478895, -0.000166, -0.000094 )     0.36744660
  WF centre and spread   17  (  2.479117,  0.000121,  0.000025 )     0.37402224
  WF centre and spread   18  (  2.479084,  0.000068, -0.000048 )     0.37053444
  Sum of centres and spreads ( 22.315113,  0.000436,  0.014710 )    34.71626437

     96    -0.112E-01     0.9778868991       34.7162643714       8.19  <-- CONV
        O_D=      0.0683505 O_OD=     17.9360233 O_TOT=     34.7162644 <-- SPRD
 Delta: O_D= -0.6539024E-02 O_OD= -0.4702526E-02 O_TOT= -0.1124155E-01 <-- DLTA
 ------------------------------------------------------------------------------
 Cycle:     97
  WF centre and spread    1  (  0.002001, -0.005816,  0.004575 )     2.03737402
  WF centre and spread    2  ( -0.003180,  0.001680,  0.000110 )     4.55224071
  WF centre and spread    3  (  0.000091, -0.014124,  0.010938 )     4.62575521
  WF centre and spread    4  (  0.010535,  0.013406,  0.002636 )     4.29730774
  WF centre and spread    5  (  0.000001, -0.000041,  0.000168 )     0.37412561
  WF centre and spread    6  (  0.000172,  0.000062, -0.000011 )     0.37248481
  WF centre and spread    7  ( -0.000024, -0.000193,  0.000005 )     0.36997912
  WF centre and spread    8  (  0.000042, -0.000189, -0.000040 )     0.37492050
  WF centre and spread    9  (  0.000037,  0.000060, -0.000048 )     0.37514781
  WF centre and spread   10  (  2.483264, -0.001115,  0.008040 )     2.10465133
  WF centre and spread   11  (  2.472786,  0.007845, -0.024453 )     4.24946219
  WF centre and spread   12  (  2.479133,  0.000209, -0.002547 )     4.47961828
  WF centre and spread   13  (  2.476820, -0.002789,  0.017873 )     4.64076358
  WF centre and spread   14  (  2.479021, -0.000119,  0.000291 )     0.37193751
  WF centre and spread   15  (  2.479034,  0.000052, -0.000076 )     0.37039946
  WF centre and spread   16  (  2.478895, -0.000165, -0.000094 )     0.36741631
  WF centre and spread   17  (  2.479118,  0.000122,  0.000025 )     0.37400156
  WF centre and spread   18  (  2.479083,  0.000069, -0.000049 )     0.37051362
  Sum of centres and spreads ( 22.316828, -0.001046,  0.017343 )    34.70809937

     97    -0.816E-02     1.1401167036       34.7080993715       8.27  <-- CONV
        O_D=      0.0667140 O_OD=     17.9294948 O_TOT=     34.7080994 <-- SPRD
 Delta: O_D= -0.1636500E-02 O_OD= -0.6528500E-02 O_TOT= -0.8165000E-02 <-- DLTA
 ------------------------------------------------------------------------------
 Cycle:     98
  WF centre and spread    1  (  0.002041, -0.005815,  0.004565 )     2.03594994
  WF centre and spread    2  ( -0.002131,  0.002462, -0.000638 )     4.55131330
  WF centre and spread    3  ( -0.001068, -0.013973,  0.010870 )     4.62385902
  WF centre and spread    4  (  0.008533,  0.009849,  0.001381 )     4.29400125
  WF centre and spread    5  (  0.000001, -0.000041,  0.000169 )     0.37410056
  WF centre and spread    6  (  0.000170,  0.000062, -0.000010 )     0.37244577
  WF centre and spread    7  ( -0.000024, -0.000192,  0.000006 )     0.36993337
  WF centre and spread    8  (  0.000042, -0.000187, -0.000040 )     0.37488733
  WF centre and spread    9  (  0.000036,  0.000060, -0.000048 )     0.37511064
  WF centre and spread   10  (  2.483378, -0.001128,  0.007984 )     2.10319429
  WF centre and spread   11  (  2.475307,  0.005888, -0.026699 )     4.24876593
  WF centre and spread   12  (  2.475007,  0.001264, -0.004825 )     4.47926991
  WF centre and spread   13  (  2.480516, -0.007407,  0.017722 )     4.63872665
  WF centre and spread   14  (  2.479022, -0.000119,  0.000289 )     0.37192146
  WF centre and spread   15  (  2.479033,  0.000051, -0.000076 )     0.37036145
  WF centre and spread   16  (  2.478896, -0.000164, -0.000094 )     0.36736844
  WF centre and spread   17  (  2.479119,  0.000125,  0.000025 )     0.37396910
  WF centre and spread   18  (  2.479081,  0.000068, -0.000049 )     0.37048027
  Sum of centres and spreads ( 22.316960, -0.009196,  0.010532 )    34.69565869

     98    -0.124E-01     1.5148492641       34.6956586861       8.35  <-- CONV
        O_D=      0.0646103 O_OD=     17.9191578 O_TOT=     34.6956587 <-- SPRD
 Delta: O_D= -0.2103700E-02 O_OD= -0.1033699E-01 O_TOT= -0.1244069E-01 <-- DLTA
 ------------------------------------------------------------------------------
 Cycle:     99
  WF centre and spread    1  (  0.002040, -0.005834,  0.004560 )     2.03565403
  WF centre and spread    2  ( -0.003632,  0.000707, -0.001984 )     4.55058278
  WF centre and spread    3  ( -0.000342, -0.013892,  0.010774 )     4.62330574
  WF centre and spread    4  (  0.008695,  0.010548, -0.000613 )     4.29150089
  WF centre and spread    5  (  0.000001, -0.000041,  0.000169 )     0.37409535
  WF centre and spread    6  (  0.000170,  0.000062, -0.000010 )     0.37243768
  WF centre and spread    7  ( -0.000024, -0.000191,  0.000007 )     0.36992439
  WF centre and spread    8  (  0.000042, -0.000188, -0.000040 )     0.37488134
  WF centre and spread    9  (  0.000037,  0.000060, -0.000048 )     0.37510325
  WF centre and spread   10  (  2.483356, -0.001143,  0.007967 )     2.10286180
  WF centre and spread   11  (  2.472331,  0.008399, -0.024583 )     4.24759492
  WF centre and spread   12  (  2.478994,  0.004286, -0.005111 )     4.47738312
  WF centre and spread   13  (  2.480115, -0.008152,  0.015451 )     4.63721078
  WF centre and spread   14  (  2.479022, -0.000120,  0.000289 )     0.37191707
  WF centre and spread   15  (  2.479033,  0.000051, -0.000075 )     0.37035357
  WF centre and spread   16  (  2.478896, -0.000164, -0.000094 )     0.36735880
  WF centre and spread   17  (  2.479118,  0.000124,  0.000025 )     0.37396320
  WF centre and spread   18  (  2.479081,  0.000068, -0.000049 )     0.37047368
  Sum of centres and spreads ( 22.316931, -0.005421,  0.006635 )    34.68660238

     99    -0.906E-02     0.9807527087       34.6866023848       8.44  <-- CONV
        O_D=      0.0578836 O_OD=     17.9168282 O_TOT=     34.6866024 <-- SPRD
 Delta: O_D= -0.6726740E-02 O_OD= -0.2329561E-02 O_TOT= -0.9056301E-02 <-- DLTA
 ------------------------------------------------------------------------------
 Cycle:    100
  WF centre and spread    1  (  0.002041, -0.005877,  0.004546 )     2.03503592
  WF centre and spread    2  ( -0.002262,  0.003274,  0.001015 )     4.54868947
  WF centre and spread    3  ( -0.000199, -0.013774,  0.010960 )     4.62229835
  WF centre and spread    4  (  0.009378,  0.012273, -0.001987 )     4.29074893
  WF centre and spread    5  (  0.000001, -0.000042,  0.000168 )     0.37408453
  WF centre and spread    6  (  0.000170,  0.000062, -0.000010 )     0.37242283
  WF centre and spread    7  ( -0.000024, -0.000191,  0.000008 )     0.36990769
  WF centre and spread    8  (  0.000042, -0.000189, -0.000040 )     0.37486985
  WF centre and spread    9  (  0.000037,  0.000060, -0.000048 )     0.37508955
  WF centre and spread   10  (  2.483339, -0.001155,  0.007973 )     2.10221388
  WF centre and spread   11  (  2.473042,  0.007067, -0.023242 )     4.24674979
  WF centre and spread   12  (  2.478634,  0.005122, -0.002866 )     4.47686404
  WF centre and spread   13  (  2.479004, -0.007144,  0.013646 )     4.63714276
  WF centre and spread   14  (  2.479021, -0.000119,  0.000291 )     0.37190942
  WF centre and spread   15  (  2.479033,  0.000051, -0.000076 )     0.37033972
  WF centre and spread   16  (  2.478896, -0.000164, -0.000093 )     0.36734025
  WF centre and spread   17  (  2.479118,  0.000124,  0.000025 )     0.37395208
  WF centre and spread   18  (  2.479081,  0.000067, -0.000049 )     0.37046179
  Sum of centres and spreads ( 22.318354, -0.000556,  0.010221 )    34.68012084

    100    -0.648E-02     0.7956618481       34.6801208371       8.52  <-- CONV
        O_D=      0.0559250 O_OD=     17.9123052 O_TOT=     34.6801208 <-- SPRD
 Delta: O_D= -0.1958542E-02 O_OD= -0.4523006E-02 O_TOT= -0.6481548E-02 <-- DLTA
 ------------------------------------------------------------------------------

 Writing checkpoint file wandn.chk... done

 Final State
  WF centre and spread    1  (  0.002041, -0.005877,  0.004546 )     2.03503592
  WF centre and spread    2  ( -0.002262,  0.003274,  0.001015 )     4.54868947
  WF centre and spread    3  ( -0.000199, -0.013774,  0.010960 )     4.62229835
  WF centre and spread    4  (  0.009378,  0.012273, -0.001987 )     4.29074893
  WF centre and spread    5  (  0.000001, -0.000042,  0.000168 )     0.37408453
  WF centre and spread    6  (  0.000170,  0.000062, -0.000010 )     0.37242283
  WF centre and spread    7  ( -0.000024, -0.000191,  0.000008 )     0.36990769
  WF centre and spread    8  (  0.000042, -0.000189, -0.000040 )     0.37486985
  WF centre and spread    9  (  0.000037,  0.000060, -0.000048 )     0.37508955
  WF centre and spread   10  (  2.483339, -0.001155,  0.007973 )     2.10221388
  WF centre and spread   11  (  2.473042,  0.007067, -0.023242 )     4.24674979
  WF centre and spread   12  (  2.478634,  0.005122, -0.002866 )     4.47686404
  WF centre and spread   13  (  2.479004, -0.007144,  0.013646 )     4.63714276
  WF centre and spread   14  (  2.479021, -0.000119,  0.000291 )     0.37190942
  WF centre and spread   15  (  2.479033,  0.000051, -0.000076 )     0.37033972
  WF centre and spread   16  (  2.478896, -0.000164, -0.000093 )     0.36734025
  WF centre and spread   17  (  2.479118,  0.000124,  0.000025 )     0.37395208
  WF centre and spread   18  (  2.479081,  0.000067, -0.000049 )     0.37046179
  Sum of centres and spreads ( 22.318354, -0.000556,  0.010221 )    34.68012084

         Spreads (Ang^2)       Omega I      =    16.711890600
        ================       Omega D      =     0.055925031
                               Omega OD     =    17.912305206
    Final Spread (Ang^2)       Omega Total  =    34.680120837
 ------------------------------------------------------------------------------
 Time for wannierise            8.486 (sec)

 Writing checkpoint file wandn.chk... done

 Time for plotting              0.000 (sec)
 Total Execution Time           9.861 (sec)

 *===========================================================================*
 |                             TIMING INFORMATION                            |
 *===========================================================================*
 |    Tag                                                Ncalls      Time (s)|
 |---------------------------------------------------------------------------|
 |kmesh: get                                        :         1         0.936|
 |overlap: allocate                                 :         1         0.004|
 |overlap: read                                     :         1         0.408|
 |wann: main                                        :         1         8.486|
 |plot: main                                        :         1         0.000|
 *---------------------------------------------------------------------------*

 All done: wannier90 exiting
