
             +---------------------------------------------------+
             |                                                   |
             |                   WANNIER90                       |
             |                                                   |
             +---------------------------------------------------+
             |                                                   |
             |        Welcome to the Maximally-Localized         |
             |        Generalized Wannier Functions code         |
             |            http://www.wannier.org                 |
             |                                                   |
             |                                                   |
             |  Wannier90 Developer Group:                       |
             |    Giovanni Pizzi    (EPFL)                       |
             |    Valerio Vitale    (Cambridge)                  |
             |    David Vanderbilt  (Rutgers University)         |
             |    Nicola Marzari    (EPFL)                       |
             |    Ivo Souza         (Universidad del Pais Vasco) |
             |    Arash A. Mostofi  (Imperial College London)    |
             |    Jonathan R. Yates (University of Oxford)       |
             |                                                   |
             |  For the full list of Wannier90 3.x authors,      |
             |  please check the code documentation and the      |
             |  README on the GitHub page of the code            |
             |                                                   |
             |                                                   |
             |  Please cite                                      |
             |                                                   |
             |  [ref] "Wannier90 as a community code:            |
             |        new features and applications",            |
             |        G. Pizzi et al., J. Phys. Cond. Matt. 32,  |
             |        165902 (2020).                             |
             |        http://doi.org/10.1088/1361-648X/ab51ff    |
             |                                                   |
             |  in any publications arising from the use of      |
             |  this code. For the method please cite            |
             |                                                   |
             |  [ref] "Maximally Localized Generalised Wannier   |
             |         Functions for Composite Energy Bands"     |
             |         N. Marzari and D. Vanderbilt              |
             |         Phys. Rev. B 56 12847 (1997)              |
             |                                                   |
             |  [ref] "Maximally Localized Wannier Functions     |
             |         for Entangled Energy Bands"               |
             |         I. Souza, N. Marzari and D. Vanderbilt    |
             |         Phys. Rev. B 65 035109 (2001)             |
             |                                                   |
             |                                                   |
             | Copyright (c) 1996-2020                           |
             |        The Wannier90 Developer Group and          |
             |        individual contributors                    |
             |                                                   |
             |      Release: 3.1.0        5th March    2020      |
             |                                                   |
             | This program is free software; you can            |
             | redistribute it and/or modify it under the terms  |
             | of the GNU General Public License as published by |
             | the Free Software Foundation; either version 2 of |
             | the License, or (at your option) any later version|
             |                                                   |
             | This program is distributed in the hope that it   |
             | will be useful, but WITHOUT ANY WARRANTY; without |
             | even the implied warranty of MERCHANTABILITY or   |
             | FITNESS FOR A PARTICULAR PURPOSE. See the GNU     |
             | General Public License for more details.          |
             |                                                   |
             | You should have received a copy of the GNU General|
             | Public License along with this program; if not,   |
             | write to the Free Software Foundation, Inc.,      |
             | 675 Mass Ave, Cambridge, MA 02139, USA.           |
             |                                                   |
             +---------------------------------------------------+
             |    Execution started on 19May2021 at 13:11:52     |
             +---------------------------------------------------+
 
 ******************************************************************************
 * -> Using CODATA 2006 constant values                                       *
 *    (http://physics.nist.gov/cuu/Constants/index.html)                      *
 * -> Using Bohr value from CODATA                                            *
 ******************************************************************************
 

 Running in serial (with serial executable)

                                    ------
                                    SYSTEM
                                    ------

                              Lattice Vectors (Ang)
                    a_1     4.957940   0.000000   0.000000
                    a_2     1.239485   2.146851   0.000000
                    a_3     1.239485   0.715617   2.024071

                   Unit Cell Volume:      21.54412  (Ang^3)

                        Reciprocal-Space Vectors (Ang^-1)
                    b_1     1.267298  -0.731675  -0.517372
                    b_2     0.000000   2.926698  -1.034744
                    b_3     0.000000   0.000000   3.104232
  
 *----------------------------------------------------------------------------*
 |   Site       Fractional Coordinate          Cartesian Coordinate (Ang)     |
 +----------------------------------------------------------------------------+
 | Ni   1   0.00000   0.00000   0.00000   |    0.00000   0.00000   0.00000    |
 | Ni   1   0.50000   0.00000   0.00000   |    2.47897   0.00000   0.00000    |
 *----------------------------------------------------------------------------*
                                ------------
                                K-POINT GRID
                                ------------
  
             Grid size =  5 x  5 x  5      Total points =  125
  
  
 *---------------------------------- MAIN ------------------------------------*
 |  Number of Wannier Functions               :                18             |
 |  Number of Objective Wannier Functions     :                18             |
 |  Number of input Bloch states              :                18             |
 |  Output verbosity (1=low, 5=high)          :                 1             |
 |  Timing Level (1=low, 5=high)              :                 1             |
 |  Optimisation (0=memory, 3=speed)          :                 3             |
 |  Length Unit                               :               Ang             |
 |  Post-processing setup (write *.nnkp)      :                 F             |
 |  Using Gamma-only branch of algorithms     :                 F             |
 *----------------------------------------------------------------------------*
 *------------------------------- WANNIERISE ---------------------------------*
 |  Total number of iterations                :               100             |
 |  Number of CG steps before reset           :                 5             |
 |  Trial step length for line search         :             2.000             |
 |  Convergence tolerence                     :         0.100E-09             |
 |  Convergence window                        :                -1             |
 |  Iterations between writing output         :                 1             |
 |  Iterations between backing up to disk     :               100             |
 |  Write r^2_nm to file                      :                 F             |
 |  Write xyz WF centres to file              :                 F             |
 |  Write on-site energies <0n|H|0n> to file  :                 F             |
 |  Use guiding centre to control phases      :                 F             |
 |  Use phases for initial projections        :                 F             |
 *----------------------------------------------------------------------------*
 Time to read parameters        0.008 (sec)

 *---------------------------------- K-MESH ----------------------------------*
 +----------------------------------------------------------------------------+
 |                    Distance to Nearest-Neighbour Shells                    |
 |                    ------------------------------------                    |
 |          Shell             Distance (Ang^-1)          Multiplicity         |
 |          -----             -----------------          ------------         |
 |             1                   0.310423                      2            |
 |             2                   0.594415                      6            |
 |             3                   0.620846                      8            |
 |             4                   0.716892                      6            |
 |             5                   0.781215                      6            |
 |             6                   0.931270                      8            |
 |             7                   1.013838                     12            |
 |             8                   1.060297                     12            |
 |             9                   1.175243                      6            |
 |            10                   1.188830                     24            |
 |            11                   1.241693                      8            |
 |            12                   1.279908                     12            |
 |            13                   1.376638                     18            |
 |            14                   1.433783                      6            |
 |            15                   1.467003                      6            |
 |            16                   1.552116                     14            |
 |            17                   1.562429                     24            |
 |            18                   1.603019                     24            |
 |            19                   1.632799                     18            |
 |            20                   1.709678                     12            |
 |            21                   1.756019                     24            |
 |            22                   1.783246                     18            |
 |            23                   1.853896                     18            |
 |            24                   1.862539                     32            |
 |            25                   1.921952                     12            |
 |            26                   1.987679                     12            |
 |            27                   2.027676                     12            |
 |            28                   2.051300                     30            |
 |            29                   2.113007                     18            |
 |            30                   2.120594                     48            |
 |            31                   2.150675                     30            |
 |            32                   2.172963                     14            |
 |            33                   2.231308                     24            |
 |            34                   2.267011                     24            |
 |            35                   2.288165                      6            |
 |            36                   2.343644                     30            |
 +----------------------------------------------------------------------------+
 | The b-vectors are chosen automatically                                     |
 | The following shells are used:   1,  2                                     |
 +----------------------------------------------------------------------------+
 |                        Shell   # Nearest-Neighbours                        |
 |                        -----   --------------------                        |
 |                          1               2                                 |
 |                          2               6                                 |
 +----------------------------------------------------------------------------+
 | Completeness relation is fully satisfied [Eq. (B1), PRB 56, 12847 (1997)]  |
 +----------------------------------------------------------------------------+
 |                  b_k Vectors (Ang^-1) and Weights (Ang^2)                  |
 |                  ----------------------------------------                  |
 |            No.         b_k(x)      b_k(y)      b_k(z)        w_b           |
 |            ---        --------------------------------     --------        |
 |             1         0.253460   -0.146335   -0.103474     4.864440        |
 |             2        -0.253460    0.146335    0.103474     4.864440        |
 |             3         0.253460    0.439005   -0.310423     0.972888        |
 |             4         0.253460   -0.146335    0.517372     0.972888        |
 |             5         0.253460    0.439005    0.310423     0.972888        |
 |             6        -0.253460    0.146335   -0.517372     0.972888        |
 |             7        -0.253460   -0.439005    0.310423     0.972888        |
 |             8        -0.253460   -0.439005   -0.310423     0.972888        |
 +----------------------------------------------------------------------------+
 |                           b_k Directions (Ang^-1)                          |
 |                           -----------------------                          |
 |            No.           x           y           z                         |
 |            ---        --------------------------------                     |
 |             1         0.253460   -0.146335   -0.103474                     |
 |             2         0.253460    0.439005   -0.310423                     |
 |             3         0.253460   -0.146335    0.517372                     |
 |             4         0.253460    0.439005    0.310423                     |
 +----------------------------------------------------------------------------+
  
 Time to get kmesh              0.800 (sec)
 *============================================================================*
 |                              MEMORY ESTIMATE                               |
 |         Maximum RAM allocated during each phase of the calculation         |
 *============================================================================*
 |                            Wannierise:           13.14 Mb                  |
 |                          plot_wannier:           13.14 Mb                  |
 *----------------------------------------------------------------------------*
  
 Starting a new Wannier90 calculation ...


 Reading overlaps from wanup.mmn    :  Created on 19May2021 at 13:11:50

 Reading projections from wanup.amn :  Created on 19May2021 at 13:11:46

 Time to read overlaps          0.363 (sec)

 Writing checkpoint file wanup.chk... done


 *------------------------------- WANNIERISE ---------------------------------*
 +--------------------------------------------------------------------+<-- CONV
 | Iter  Delta Spread     RMS Gradient      Spread (Ang^2)      Time  |<-- CONV
 +--------------------------------------------------------------------+<-- CONV

 ------------------------------------------------------------------------------
 Initial State
  WF centre and spread    1  (  0.000023,  0.000010, -0.000015 )     2.85096622
  WF centre and spread    2  ( -0.026572,  0.015189,  0.017480 )     5.57458243
  WF centre and spread    3  ( -0.008771,  0.017916,  0.016739 )     5.80961514
  WF centre and spread    4  (  0.042021,  0.000930, -0.003115 )     5.59043114
  WF centre and spread    5  (  0.000000, -0.000000, -0.000001 )     0.40524723
  WF centre and spread    6  (  0.000028,  0.000011, -0.000010 )     0.41468795
  WF centre and spread    7  (  0.000017, -0.000034, -0.000036 )     0.41122020
  WF centre and spread    8  (  0.000007, -0.000019, -0.000019 )     0.41130358
  WF centre and spread    9  ( -0.000011, -0.000006, -0.000014 )     0.41170152
  WF centre and spread   10  (  2.478971, -0.000020, -0.000004 )     2.72521360
  WF centre and spread   11  (  2.298714, -0.110129,  0.049838 )     7.20714550
  WF centre and spread   12  (  2.467129,  0.005366,  0.025583 )     5.79273288
  WF centre and spread   13  (  2.478738, -0.010359, -0.007778 )     5.57943008
  WF centre and spread   14  (  2.478970,  0.000002, -0.000002 )     0.40645920
  WF centre and spread   15  (  2.478989,  0.000017, -0.000014 )     0.41584793
  WF centre and spread   16  (  2.478996, -0.000051, -0.000033 )     0.41231989
  WF centre and spread   17  (  2.478980,  0.000016, -0.000034 )     0.41336584
  WF centre and spread   18  (  2.478978, -0.000006,  0.000001 )     0.41429553
  Sum of centres and spreads ( 22.125206, -0.081164,  0.098567 )    45.24656586

      0     0.452E+02     0.0000000000       45.2465658567       0.00  <-- CONV
        O_D=      3.6360056 O_OD=     24.8953851 O_TOT=     45.2465659 <-- SPRD
 ------------------------------------------------------------------------------
 Cycle:      1
  WF centre and spread    1  ( -0.000108, -0.000140,  0.000165 )     2.84657221
  WF centre and spread    2  ( -0.029664,  0.015826,  0.010777 )     5.24169934
  WF centre and spread    3  (  0.003427,  0.011690,  0.011668 )     5.78084540
  WF centre and spread    4  (  0.039610,  0.003322, -0.003138 )     5.56033511
  WF centre and spread    5  ( -0.000016, -0.000008,  0.000030 )     0.40510206
  WF centre and spread    6  (  0.000024,  0.000014, -0.000027 )     0.41449195
  WF centre and spread    7  (  0.000011, -0.000021, -0.000019 )     0.41115454
  WF centre and spread    8  (  0.000006, -0.000027, -0.000023 )     0.41110894
  WF centre and spread    9  ( -0.000012, -0.000006, -0.000007 )     0.41149008
  WF centre and spread   10  (  2.479000, -0.000069, -0.000217 )     2.72334990
  WF centre and spread   11  (  2.319481, -0.089524,  0.039940 )     6.69848494
  WF centre and spread   12  (  2.471956,  0.002291,  0.023091 )     5.76203130
  WF centre and spread   13  (  2.478589, -0.011423, -0.007467 )     5.56118096
  WF centre and spread   14  (  2.478971, -0.000001, -0.000008 )     0.40637747
  WF centre and spread   15  (  2.479022,  0.000006, -0.000041 )     0.41567392
  WF centre and spread   16  (  2.478985, -0.000026, -0.000022 )     0.41211200
  WF centre and spread   17  (  2.478978,  0.000003, -0.000034 )     0.41319400
  WF centre and spread   18  (  2.478975, -0.000001,  0.000003 )     0.41410694
  Sum of centres and spreads ( 22.157237, -0.068094,  0.074672 )    44.28931107

      1    -0.957E+00     7.4683628655       44.2893110650       0.08  <-- CONV
        O_D=      2.6968451 O_OD=     24.8772909 O_TOT=     44.2893111 <-- SPRD
 Delta: O_D= -0.9391606E+00 O_OD= -0.1809423E-01 O_TOT= -0.9572548E+00 <-- DLTA
 ------------------------------------------------------------------------------
 Cycle:      2
  WF centre and spread    1  ( -0.000283, -0.000146,  0.000394 )     2.83064744
  WF centre and spread    2  ( -0.026419,  0.015068,  0.016756 )     5.14606419
  WF centre and spread    3  (  0.004597,  0.014250,  0.009748 )     5.76471640
  WF centre and spread    4  (  0.030235,  0.012482, -0.000595 )     5.45981262
  WF centre and spread    5  ( -0.000062, -0.000036,  0.000110 )     0.40483643
  WF centre and spread    6  (  0.000056,  0.000015, -0.000056 )     0.41371935
  WF centre and spread    7  ( -0.000027, -0.000004, -0.000000 )     0.41080922
  WF centre and spread    8  (  0.000012, -0.000042, -0.000033 )     0.41029825
  WF centre and spread    9  ( -0.000030, -0.000011,  0.000009 )     0.41050352
  WF centre and spread   10  (  2.479178, -0.000176, -0.000397 )     2.70979165
  WF centre and spread   11  (  2.366175, -0.040687,  0.033147 )     5.79519308
  WF centre and spread   12  (  2.472093, -0.001242,  0.019436 )     5.73665078
  WF centre and spread   13  (  2.476339, -0.013025, -0.007533 )     5.49025873
  WF centre and spread   14  (  2.478974, -0.000005, -0.000017 )     0.40596638
  WF centre and spread   15  (  2.479117, -0.000021, -0.000130 )     0.41494754
  WF centre and spread   16  (  2.478955,  0.000043,  0.000029 )     0.41129031
  WF centre and spread   17  (  2.478987, -0.000021, -0.000036 )     0.41258623
  WF centre and spread   18  (  2.478958,  0.000013,  0.000009 )     0.41329692
  Sum of centres and spreads ( 22.196855, -0.013545,  0.070840 )    43.04138903

      2    -0.125E+01     3.8596152339       43.0413890291       0.17  <-- CONV
        O_D=      1.5379243 O_OD=     24.7882896 O_TOT=     43.0413890 <-- SPRD
 Delta: O_D= -0.1158921E+01 O_OD= -0.8900129E-01 O_TOT= -0.1247922E+01 <-- DLTA
 ------------------------------------------------------------------------------
 Cycle:      3
  WF centre and spread    1  ( -0.000506, -0.000151,  0.000441 )     2.81208996
  WF centre and spread    2  ( -0.027201,  0.016662,  0.016764 )     5.10957040
  WF centre and spread    3  ( -0.011216,  0.020560,  0.014456 )     5.75055562
  WF centre and spread    4  (  0.023278,  0.018934,  0.004572 )     5.38449981
  WF centre and spread    5  ( -0.000078, -0.000046,  0.000155 )     0.40428441
  WF centre and spread    6  (  0.000074,  0.000014, -0.000070 )     0.41254805
  WF centre and spread    7  ( -0.000046, -0.000001,  0.000004 )     0.40988789
  WF centre and spread    8  (  0.000024, -0.000044, -0.000037 )     0.40923085
  WF centre and spread    9  ( -0.000041, -0.000013,  0.000015 )     0.40926553
  WF centre and spread   10  (  2.479277, -0.000227, -0.000549 )     2.69225787
  WF centre and spread   11  (  2.379468, -0.025989,  0.034709 )     5.57286594
  WF centre and spread   12  (  2.446030,  0.004414,  0.025906 )     5.76061741
  WF centre and spread   13  (  2.472967, -0.012945, -0.006562 )     5.41219056
  WF centre and spread   14  (  2.478978, -0.000005, -0.000024 )     0.40521258
  WF centre and spread   15  (  2.479167, -0.000026, -0.000161 )     0.41382570
  WF centre and spread   16  (  2.478944,  0.000065,  0.000039 )     0.41017828
  WF centre and spread   17  (  2.478994, -0.000014, -0.000039 )     0.41150507
  WF centre and spread   18  (  2.478950,  0.000018,  0.000014 )     0.41219188
  Sum of centres and spreads ( 22.157062,  0.021206,  0.089633 )    42.59277781

      3    -0.449E+00     2.1028270535       42.5927778084       0.25  <-- CONV
        O_D=      1.2291103 O_OD=     24.6484924 O_TOT=     42.5927778 <-- SPRD
 Delta: O_D= -0.3088141E+00 O_OD= -0.1397972E+00 O_TOT= -0.4486112E+00 <-- DLTA
 ------------------------------------------------------------------------------
 Cycle:      4
  WF centre and spread    1  ( -0.001070, -0.000180,  0.000523 )     2.76096477
  WF centre and spread    2  ( -0.031013,  0.020377,  0.014242 )     5.06400966
  WF centre and spread    3  ( -0.004373,  0.017354,  0.010290 )     5.68474226
  WF centre and spread    4  (  0.006944,  0.033622,  0.018179 )     5.28900856
  WF centre and spread    5  ( -0.000119, -0.000059,  0.000267 )     0.40272389
  WF centre and spread    6  (  0.000111,  0.000010, -0.000096 )     0.40918368
  WF centre and spread    7  ( -0.000081,  0.000006,  0.000012 )     0.40705116
  WF centre and spread    8  (  0.000034, -0.000062, -0.000035 )     0.40622792
  WF centre and spread    9  ( -0.000047, -0.000015,  0.000031 )     0.40597223
  WF centre and spread   10  (  2.479538, -0.000386, -0.001120 )     2.64778955
  WF centre and spread   11  (  2.391747, -0.013010,  0.034057 )     5.38701729
  WF centre and spread   12  (  2.451796, -0.007531,  0.018493 )     5.67767388
  WF centre and spread   13  (  2.462501, -0.012804, -0.003831 )     5.26728923
  WF centre and spread   14  (  2.478977, -0.000001, -0.000044 )     0.40321820
  WF centre and spread   15  (  2.479275, -0.000028, -0.000208 )     0.41061087
  WF centre and spread   16  (  2.478924,  0.000113,  0.000046 )     0.40706380
  WF centre and spread   17  (  2.478992, -0.000009, -0.000041 )     0.40836251
  WF centre and spread   18  (  2.478957,  0.000024,  0.000025 )     0.40910378
  Sum of centres and spreads ( 22.151096,  0.037421,  0.090790 )    41.84801322

      4    -0.745E+00     2.3660848028       41.8480132154       0.35  <-- CONV
        O_D=      0.8465348 O_OD=     24.2863033 O_TOT=     41.8480132 <-- SPRD
 Delta: O_D= -0.3825755E+00 O_OD= -0.3621891E+00 O_TOT= -0.7447646E+00 <-- DLTA
 ------------------------------------------------------------------------------
 Cycle:      5
  WF centre and spread    1  ( -0.001406, -0.000118,  0.000549 )     2.72531470
  WF centre and spread    2  ( -0.034675,  0.022157,  0.011690 )     5.05407391
  WF centre and spread    3  ( -0.007527,  0.023376,  0.011637 )     5.68356566
  WF centre and spread    4  (  0.004016,  0.036382,  0.019032 )     5.23907044
  WF centre and spread    5  ( -0.000142, -0.000066,  0.000332 )     0.40153521
  WF centre and spread    6  (  0.000133,  0.000008, -0.000111 )     0.40677899
  WF centre and spread    7  ( -0.000097,  0.000009,  0.000023 )     0.40494383
  WF centre and spread    8  (  0.000037, -0.000066, -0.000032 )     0.40412284
  WF centre and spread    9  ( -0.000060, -0.000017,  0.000040 )     0.40370069
  WF centre and spread   10  (  2.479639, -0.000382, -0.001537 )     2.61785368
  WF centre and spread   11  (  2.395499, -0.007956,  0.033441 )     5.35118193
  WF centre and spread   12  (  2.453197, -0.004767,  0.018211 )     5.61725219
  WF centre and spread   13  (  2.460706, -0.015374, -0.004879 )     5.21055308
  WF centre and spread   14  (  2.478969,  0.000003, -0.000055 )     0.40184365
  WF centre and spread   15  (  2.479338, -0.000028, -0.000231 )     0.40833124
  WF centre and spread   16  (  2.478914,  0.000147,  0.000054 )     0.40488663
  WF centre and spread   17  (  2.478988, -0.000003, -0.000042 )     0.40617385
  WF centre and spread   18  (  2.478947,  0.000029,  0.000033 )     0.40696262
  Sum of centres and spreads ( 22.144474,  0.053334,  0.088155 )    41.54814514

      5    -0.300E+00     2.3925557566       41.5481451385       0.43  <-- CONV
        O_D=      0.8001279 O_OD=     24.0328421 O_TOT=     41.5481451 <-- SPRD
 Delta: O_D= -0.4640687E-01 O_OD= -0.2534612E+00 O_TOT= -0.2998681E+00 <-- DLTA
 ------------------------------------------------------------------------------
 Cycle:      6
  WF centre and spread    1  ( -0.001626, -0.000043,  0.000643 )     2.65836440
  WF centre and spread    2  ( -0.043318,  0.024759,  0.006563 )     5.04153072
  WF centre and spread    3  ( -0.010737,  0.013921,  0.012484 )     5.52915670
  WF centre and spread    4  (  0.010011,  0.030330,  0.009058 )     5.12963987
  WF centre and spread    5  ( -0.000167, -0.000072,  0.000430 )     0.39898878
  WF centre and spread    6  (  0.000165,  0.000005, -0.000134 )     0.40215802
  WF centre and spread    7  ( -0.000120,  0.000005,  0.000051 )     0.40076606
  WF centre and spread    8  (  0.000041, -0.000064, -0.000026 )     0.40018708
  WF centre and spread    9  ( -0.000070, -0.000018,  0.000060 )     0.39958219
  WF centre and spread   10  (  2.479857, -0.000327, -0.002286 )     2.56243963
  WF centre and spread   11  (  2.401060,  0.002667,  0.032091 )     5.32315702
  WF centre and spread   12  (  2.422129,  0.003836,  0.025051 )     5.61418388
  WF centre and spread   13  (  2.466600, -0.019511, -0.009946 )     5.11455584
  WF centre and spread   14  (  2.478958,  0.000018, -0.000065 )     0.39910993
  WF centre and spread   15  (  2.479438, -0.000029, -0.000260 )     0.40401348
  WF centre and spread   16  (  2.478895,  0.000214,  0.000077 )     0.40077308
  WF centre and spread   17  (  2.478979, -0.000015, -0.000043 )     0.40213865
  WF centre and spread   18  (  2.478963,  0.000037,  0.000045 )     0.40303661
  Sum of centres and spreads ( 22.119058,  0.055713,  0.073794 )    40.98378195

      6    -0.564E+00     2.1459107164       40.9837819479       0.53  <-- CONV
        O_D=      0.7122221 O_OD=     23.5563848 O_TOT=     40.9837819 <-- SPRD
 Delta: O_D= -0.8790584E-01 O_OD= -0.4764573E+00 O_TOT= -0.5643632E+00 <-- DLTA
 ------------------------------------------------------------------------------
 Cycle:      7
  WF centre and spread    1  ( -0.001636, -0.000006,  0.000651 )     2.65547919
  WF centre and spread    2  ( -0.043237,  0.025090,  0.006714 )     5.03742011
  WF centre and spread    3  ( -0.001545,  0.014741,  0.011400 )     5.51492696
  WF centre and spread    4  (  0.009048,  0.029929,  0.008862 )     5.12241882
  WF centre and spread    5  ( -0.000169, -0.000070,  0.000432 )     0.39879568
  WF centre and spread    6  (  0.000167,  0.000006, -0.000134 )     0.40194037
  WF centre and spread    7  ( -0.000121,  0.000004,  0.000053 )     0.40053844
  WF centre and spread    8  (  0.000035, -0.000067, -0.000024 )     0.40001836
  WF centre and spread    9  ( -0.000069, -0.000018,  0.000060 )     0.39945819
  WF centre and spread   10  (  2.479881, -0.000327, -0.002308 )     2.55943414
  WF centre and spread   11  (  2.401237,  0.002481,  0.031746 )     5.31687765
  WF centre and spread   12  (  2.447339, -0.006973,  0.017278 )     5.51252732
  WF centre and spread   13  (  2.467133, -0.018171, -0.009360 )     5.10233311
  WF centre and spread   14  (  2.478959,  0.000019, -0.000061 )     0.39891478
  WF centre and spread   15  (  2.479439, -0.000029, -0.000258 )     0.40381496
  WF centre and spread   16  (  2.478895,  0.000216,  0.000079 )     0.40056830
  WF centre and spread   17  (  2.478976, -0.000021, -0.000042 )     0.40196521
  WF centre and spread   18  (  2.478966,  0.000038,  0.000046 )     0.40291857
  Sum of centres and spreads ( 22.153299,  0.046843,  0.065133 )    40.83035018

      7    -0.153E+00     2.6665449015       40.8303501751       0.61  <-- CONV
        O_D=      0.5873572 O_OD=     23.5278179 O_TOT=     40.8303502 <-- SPRD
 Delta: O_D= -0.1248649E+00 O_OD= -0.2856685E-01 O_TOT= -0.1534318E+00 <-- DLTA
 ------------------------------------------------------------------------------
 Cycle:      8
  WF centre and spread    1  ( -0.001517,  0.000246,  0.000672 )     2.63285224
  WF centre and spread    2  ( -0.042976,  0.027703,  0.007391 )     5.01063231
  WF centre and spread    3  (  0.021759,  0.007231,  0.005327 )     5.51702631
  WF centre and spread    4  (  0.005029,  0.025890,  0.006636 )     5.08189151
  WF centre and spread    5  ( -0.000165, -0.000060,  0.000435 )     0.39735074
  WF centre and spread    6  (  0.000178,  0.000011, -0.000137 )     0.40034550
  WF centre and spread    7  ( -0.000130, -0.000009,  0.000063 )     0.39889568
  WF centre and spread    8  (  0.000026, -0.000064, -0.000018 )     0.39876804
  WF centre and spread    9  ( -0.000061, -0.000021,  0.000059 )     0.39818421
  WF centre and spread   10  (  2.480036, -0.000288, -0.002416 )     2.53590049
  WF centre and spread   11  (  2.401704,  0.001666,  0.029754 )     5.27701413
  WF centre and spread   12  (  2.466530, -0.011562,  0.012834 )     5.50223985
  WF centre and spread   13  (  2.472654, -0.010092, -0.006418 )     5.03674912
  WF centre and spread   14  (  2.478974,  0.000018, -0.000042 )     0.39747603
  WF centre and spread   15  (  2.479448, -0.000027, -0.000247 )     0.40233620
  WF centre and spread   16  (  2.478895,  0.000235,  0.000091 )     0.39908613
  WF centre and spread   17  (  2.478969, -0.000055, -0.000041 )     0.40069451
  WF centre and spread   18  (  2.478991,  0.000037,  0.000049 )     0.40161521
  Sum of centres and spreads ( 22.198346,  0.040860,  0.053991 )    40.58905822

      8    -0.241E+00     1.1947439727       40.5890582223       0.69  <-- CONV
        O_D=      0.5652662 O_OD=     23.3086169 O_TOT=     40.5890582 <-- SPRD
 Delta: O_D= -0.2209093E-01 O_OD= -0.2192010E+00 O_TOT= -0.2412920E+00 <-- DLTA
 ------------------------------------------------------------------------------
 Cycle:      9
  WF centre and spread    1  ( -0.001563,  0.000326,  0.000683 )     2.62873333
  WF centre and spread    2  ( -0.043252,  0.028057,  0.007355 )     5.00617987
  WF centre and spread    3  ( -0.004351,  0.015724,  0.011643 )     5.47489642
  WF centre and spread    4  (  0.004464,  0.025240,  0.006498 )     5.07649683
  WF centre and spread    5  ( -0.000160, -0.000060,  0.000435 )     0.39706626
  WF centre and spread    6  (  0.000178,  0.000011, -0.000139 )     0.40004536
  WF centre and spread    7  ( -0.000132, -0.000011,  0.000063 )     0.39858847
  WF centre and spread    8  (  0.000033, -0.000056, -0.000019 )     0.39853492
  WF centre and spread    9  ( -0.000071, -0.000021,  0.000057 )     0.39794453
  WF centre and spread   10  (  2.480010, -0.000231, -0.002417 )     2.53150517
  WF centre and spread   11  (  2.401401,  0.001879,  0.029801 )     5.27149034
  WF centre and spread   12  (  2.451469, -0.007248,  0.015204 )     5.44099971
  WF centre and spread   13  (  2.472759, -0.009428, -0.006194 )     5.02975562
  WF centre and spread   14  (  2.478979,  0.000017, -0.000041 )     0.39721122
  WF centre and spread   15  (  2.479449, -0.000027, -0.000246 )     0.40205306
  WF centre and spread   16  (  2.478895,  0.000237,  0.000093 )     0.39880159
  WF centre and spread   17  (  2.478974, -0.000050, -0.000042 )     0.40045961
  WF centre and spread   18  (  2.478977,  0.000037,  0.000050 )     0.40139722
  Sum of centres and spreads ( 22.156060,  0.054397,  0.062784 )    40.45215953

      9    -0.137E+00     2.1543380551       40.4521595316       0.78  <-- CONV
        O_D=      0.4676028 O_OD=     23.2693816 O_TOT=     40.4521595 <-- SPRD
 Delta: O_D= -0.9766341E-01 O_OD= -0.3923528E-01 O_TOT= -0.1368987E+00 <-- DLTA
 ------------------------------------------------------------------------------
 Cycle:     10
  WF centre and spread    1  ( -0.001452,  0.000686,  0.000737 )     2.59081763
  WF centre and spread    2  ( -0.044945,  0.031247,  0.006567 )     4.96860337
  WF centre and spread    3  ( -0.020243,  0.013278,  0.010650 )     5.42282336
  WF centre and spread    4  (  0.001368,  0.019294,  0.004482 )     5.03355241
  WF centre and spread    5  ( -0.000139, -0.000054,  0.000433 )     0.39454316
  WF centre and spread    6  (  0.000190,  0.000017, -0.000149 )     0.39736713
  WF centre and spread    7  ( -0.000142, -0.000032,  0.000072 )     0.39586448
  WF centre and spread    8  (  0.000049, -0.000034, -0.000015 )     0.39641567
  WF centre and spread    9  ( -0.000066, -0.000020,  0.000053 )     0.39568732
  WF centre and spread   10  (  2.480102, -0.000063, -0.002667 )     2.49182018
  WF centre and spread   11  (  2.400817,  0.003500,  0.029990 )     5.22767591
  WF centre and spread   12  (  2.427242,  0.005501,  0.019801 )     5.48963246
  WF centre and spread   13  (  2.474745, -0.004693, -0.004865 )     4.97443023
  WF centre and spread   14  (  2.479007,  0.000011, -0.000041 )     0.39486482
  WF centre and spread   15  (  2.479465, -0.000026, -0.000228 )     0.39952609
  WF centre and spread   16  (  2.478891,  0.000261,  0.000107 )     0.39628001
  WF centre and spread   17  (  2.478980, -0.000064, -0.000043 )     0.39831074
  WF centre and spread   18  (  2.478980,  0.000030,  0.000055 )     0.39916202
  Sum of centres and spreads ( 22.112848,  0.068840,  0.064939 )    40.16737700

     10    -0.285E+00     1.0881459358       40.1673770026       0.86  <-- CONV
        O_D=      0.5340720 O_OD=     22.9181299 O_TOT=     40.1673770 <-- SPRD
 Delta: O_D=  0.6646922E-01 O_OD= -0.3512518E+00 O_TOT= -0.2847825E+00 <-- DLTA
 ------------------------------------------------------------------------------
 Cycle:     11
  WF centre and spread    1  ( -0.001465,  0.000679,  0.000747 )     2.58968210
  WF centre and spread    2  ( -0.044987,  0.031238,  0.006579 )     4.96723125
  WF centre and spread    3  ( -0.013057,  0.012639,  0.009464 )     5.40886194
  WF centre and spread    4  (  0.000951,  0.019435,  0.004634 )     5.03280969
  WF centre and spread    5  ( -0.000141, -0.000054,  0.000433 )     0.39445855
  WF centre and spread    6  (  0.000191,  0.000017, -0.000148 )     0.39727116
  WF centre and spread    7  ( -0.000142, -0.000033,  0.000072 )     0.39576674
  WF centre and spread    8  (  0.000046, -0.000036, -0.000014 )     0.39634327
  WF centre and spread    9  ( -0.000064, -0.000020,  0.000054 )     0.39566408
  WF centre and spread   10  (  2.480126, -0.000075, -0.002684 )     2.49074864
  WF centre and spread   11  (  2.400950,  0.003467,  0.029965 )     5.22637245
  WF centre and spread   12  (  2.449438, -0.006090,  0.012381 )     5.38373368
  WF centre and spread   13  (  2.474487, -0.004672, -0.004769 )     4.97294647
  WF centre and spread   14  (  2.479006,  0.000011, -0.000041 )     0.39478963
  WF centre and spread   15  (  2.479466, -0.000025, -0.000227 )     0.39943892
  WF centre and spread   16  (  2.478890,  0.000261,  0.000108 )     0.39618906
  WF centre and spread   17  (  2.478979, -0.000066, -0.000042 )     0.39823265
  WF centre and spread   18  (  2.478984,  0.000030,  0.000054 )     0.39914306
  Sum of centres and spreads ( 22.141659,  0.056706,  0.056565 )    40.03968334

     11    -0.128E+00     3.8798996827       40.0396833432       0.94  <-- CONV
        O_D=      0.4164166 O_OD=     22.9080917 O_TOT=     40.0396833 <-- SPRD
 Delta: O_D= -0.1176555E+00 O_OD= -0.1003818E-01 O_TOT= -0.1276937E+00 <-- DLTA
 ------------------------------------------------------------------------------
 Cycle:     12
  WF centre and spread    1  ( -0.001486,  0.000673,  0.000763 )     2.58174978
  WF centre and spread    2  ( -0.045273,  0.031227,  0.006647 )     4.95970838
  WF centre and spread    3  (  0.006232,  0.014303,  0.008237 )     5.39206633
  WF centre and spread    4  (  0.000010,  0.019932,  0.005130 )     5.02614819
  WF centre and spread    5  ( -0.000142, -0.000054,  0.000432 )     0.39396004
  WF centre and spread    6  (  0.000196,  0.000018, -0.000149 )     0.39674265
  WF centre and spread    7  ( -0.000143, -0.000037,  0.000074 )     0.39523388
  WF centre and spread    8  (  0.000040, -0.000040, -0.000012 )     0.39592111
  WF centre and spread    9  ( -0.000060, -0.000020,  0.000054 )     0.39521034
  WF centre and spread   10  (  2.480143, -0.000064, -0.002717 )     2.48279621
  WF centre and spread   11  (  2.401511,  0.003408,  0.029903 )     5.21943936
  WF centre and spread   12  (  2.461133, -0.007720,  0.012676 )     5.38031798
  WF centre and spread   13  (  2.474028, -0.004871, -0.004622 )     4.96245210
  WF centre and spread   14  (  2.479005,  0.000012, -0.000040 )     0.39433978
  WF centre and spread   15  (  2.479473, -0.000024, -0.000223 )     0.39894396
  WF centre and spread   16  (  2.478889,  0.000264,  0.000108 )     0.39569481
  WF centre and spread   17  (  2.478976, -0.000071, -0.000040 )     0.39779326
  WF centre and spread   18  (  2.478988,  0.000027,  0.000054 )     0.39867854
  Sum of centres and spreads ( 22.171520,  0.056963,  0.056275 )    39.96719670

     12    -0.725E-01     1.0860769887       39.9671967039       1.04  <-- CONV
        O_D=      0.4133324 O_OD=     22.8386892 O_TOT=     39.9671967 <-- SPRD
 Delta: O_D= -0.3084202E-02 O_OD= -0.6940244E-01 O_TOT= -0.7248664E-01 <-- DLTA
 ------------------------------------------------------------------------------
 Cycle:     13
  WF centre and spread    1  ( -0.001427,  0.000614,  0.000872 )     2.52582295
  WF centre and spread    2  ( -0.048541,  0.031448,  0.006861 )     4.90464987
  WF centre and spread    3  ( -0.029257,  0.023357,  0.022993 )     5.60528183
  WF centre and spread    4  ( -0.006529,  0.022610,  0.010678 )     4.98431261
  WF centre and spread    5  ( -0.000122, -0.000055,  0.000419 )     0.39056057
  WF centre and spread    6  (  0.000227,  0.000019, -0.000164 )     0.39309620
  WF centre and spread    7  ( -0.000148, -0.000061,  0.000087 )     0.39154121
  WF centre and spread    8  (  0.000030, -0.000038, -0.000006 )     0.39300426
  WF centre and spread    9  ( -0.000045, -0.000021,  0.000052 )     0.39201031
  WF centre and spread   10  (  2.480245,  0.000055, -0.002866 )     2.42673316
  WF centre and spread   11  (  2.402796,  0.004287,  0.030571 )     5.17289311
  WF centre and spread   12  (  2.434141,  0.019109,  0.042548 )     5.52331930
  WF centre and spread   13  (  2.470863, -0.006604, -0.003694 )     4.89000431
  WF centre and spread   14  (  2.479015,  0.000014, -0.000042 )     0.39128258
  WF centre and spread   15  (  2.479512, -0.000021, -0.000204 )     0.39549509
  WF centre and spread   16  (  2.478880,  0.000283,  0.000114 )     0.39226486
  WF centre and spread   17  (  2.478979, -0.000082, -0.000037 )     0.39475436
  WF centre and spread   18  (  2.478995,  0.000006,  0.000054 )     0.39538332
  Sum of centres and spreads ( 22.097612,  0.094921,  0.108238 )    39.96240989

     13    -0.479E-02     1.3651515245       39.9624098937       1.15  <-- CONV
        O_D=      0.9100871 O_OD=     22.3371477 O_TOT=     39.9624099 <-- SPRD
 Delta: O_D=  0.4967547E+00 O_OD= -0.5015415E+00 O_TOT= -0.4786810E-02 <-- DLTA
 ------------------------------------------------------------------------------
 Cycle:     14
  WF centre and spread    1  ( -0.001438,  0.000578,  0.000818 )     2.52511973
  WF centre and spread    2  ( -0.048703,  0.031585,  0.006889 )     4.90283867
  WF centre and spread    3  ( -0.005508,  0.014601,  0.013893 )     5.38373391
  WF centre and spread    4  ( -0.006681,  0.021439, -0.000890 )     4.98487800
  WF centre and spread    5  ( -0.000121, -0.000056,  0.000422 )     0.39047709
  WF centre and spread    6  (  0.000229,  0.000019, -0.000165 )     0.39300528
  WF centre and spread    7  ( -0.000148, -0.000061,  0.000090 )     0.39144536
  WF centre and spread    8  (  0.000031, -0.000038, -0.000006 )     0.39293264
  WF centre and spread    9  ( -0.000049, -0.000023,  0.000051 )     0.39199585
  WF centre and spread   10  (  2.480232,  0.000032, -0.002963 )     2.42606137
  WF centre and spread   11  (  2.402553,  0.004456,  0.030699 )     5.17160086
  WF centre and spread   12  (  2.456540,  0.004786,  0.029695 )     5.37373585
  WF centre and spread   13  (  2.470740, -0.006923, -0.004144 )     4.88858147
  WF centre and spread   14  (  2.479014,  0.000014, -0.000042 )     0.39121553
  WF centre and spread   15  (  2.479514, -0.000021, -0.000203 )     0.39540843
  WF centre and spread   16  (  2.478880,  0.000284,  0.000114 )     0.39217542
  WF centre and spread   17  (  2.478975, -0.000081, -0.000036 )     0.39468975
  WF centre and spread   18  (  2.478991,  0.000004,  0.000054 )     0.39539521
  Sum of centres and spreads ( 22.143050,  0.070595,  0.074277 )    39.58529041

     14    -0.377E+00     5.5672593845       39.5852904106       1.23  <-- CONV
        O_D=      0.5411026 O_OD=     22.3290127 O_TOT=     39.5852904 <-- SPRD
 Delta: O_D= -0.3689845E+00 O_OD= -0.8135022E-02 O_TOT= -0.3771195E+00 <-- DLTA
 ------------------------------------------------------------------------------
 Cycle:     15
  WF centre and spread    1  ( -0.001450,  0.000676,  0.000855 )     2.52304163
  WF centre and spread    2  ( -0.048943,  0.031909,  0.006913 )     4.89936076
  WF centre and spread    3  (  0.007036,  0.012433,  0.011074 )     5.33081007
  WF centre and spread    4  ( -0.006564,  0.021650,  0.009490 )     4.98100606
  WF centre and spread    5  ( -0.000122, -0.000054,  0.000417 )     0.39031978
  WF centre and spread    6  (  0.000232,  0.000020, -0.000164 )     0.39282807
  WF centre and spread    7  ( -0.000148, -0.000063,  0.000087 )     0.39126279
  WF centre and spread    8  (  0.000028, -0.000037, -0.000005 )     0.39277956
  WF centre and spread    9  ( -0.000046, -0.000024,  0.000050 )     0.39186056
  WF centre and spread   10  (  2.480190,  0.000099, -0.002898 )     2.42400074
  WF centre and spread   11  (  2.402178,  0.005031,  0.031154 )     5.16975647
  WF centre and spread   12  (  2.467019, -0.000640,  0.023366 )     5.33556145
  WF centre and spread   13  (  2.470590, -0.006553, -0.003606 )     4.88518378
  WF centre and spread   14  (  2.479013,  0.000014, -0.000044 )     0.39107230
  WF centre and spread   15  (  2.479517, -0.000020, -0.000202 )     0.39523778
  WF centre and spread   16  (  2.478880,  0.000285,  0.000115 )     0.39200545
  WF centre and spread   17  (  2.478972, -0.000083, -0.000035 )     0.39453893
  WF centre and spread   18  (  2.478994,  0.000003,  0.000054 )     0.39526566
  Sum of centres and spreads ( 22.165376,  0.064644,  0.076621 )    39.47589185

     15    -0.109E+00     1.9152232277       39.4758918457       1.32  <-- CONV
        O_D=      0.4542298 O_OD=     22.3064869 O_TOT=     39.4758918 <-- SPRD
 Delta: O_D= -0.8687280E-01 O_OD= -0.2252577E-01 O_TOT= -0.1093986E+00 <-- DLTA
 ------------------------------------------------------------------------------
 Cycle:     16
  WF centre and spread    1  ( -0.001393,  0.000717,  0.000791 )     2.51417251
  WF centre and spread    2  ( -0.049855,  0.032897,  0.007015 )     4.88660092
  WF centre and spread    3  (  0.012803,  0.016595,  0.013676 )     5.30071439
  WF centre and spread    4  ( -0.006295,  0.019665,  0.008766 )     4.96396634
  WF centre and spread    5  ( -0.000116, -0.000054,  0.000407 )     0.38972620
  WF centre and spread    6  (  0.000240,  0.000020, -0.000165 )     0.39217526
  WF centre and spread    7  ( -0.000147, -0.000068,  0.000088 )     0.39058412
  WF centre and spread    8  (  0.000026, -0.000032, -0.000005 )     0.39221514
  WF centre and spread    9  ( -0.000037, -0.000030,  0.000049 )     0.39128517
  WF centre and spread   10  (  2.480172,  0.000130, -0.002981 )     2.41520257
  WF centre and spread   11  (  2.400978,  0.006418,  0.032252 )     5.16224957
  WF centre and spread   12  (  2.484904, -0.012508,  0.009893 )     5.31005968
  WF centre and spread   13  (  2.471042, -0.006487, -0.003905 )     4.87234966
  WF centre and spread   14  (  2.479015,  0.000013, -0.000052 )     0.39053858
  WF centre and spread   15  (  2.479526, -0.000019, -0.000197 )     0.39459841
  WF centre and spread   16  (  2.478880,  0.000287,  0.000117 )     0.39137597
  WF centre and spread   17  (  2.478968, -0.000082, -0.000035 )     0.39397428
  WF centre and spread   18  (  2.479000, -0.000002,  0.000053 )     0.39469283
  Sum of centres and spreads ( 22.187712,  0.057456,  0.065768 )    39.34648161

     16    -0.129E+00     1.2667181498       39.3464816053       1.40  <-- CONV
        O_D=      0.4190547 O_OD=     22.2122518 O_TOT=     39.3464816 <-- SPRD
 Delta: O_D= -0.3517514E-01 O_OD= -0.9423510E-01 O_TOT= -0.1294102E+00 <-- DLTA
 ------------------------------------------------------------------------------
 Cycle:     17
  WF centre and spread    1  ( -0.001347,  0.000686,  0.000654 )     2.50456103
  WF centre and spread    2  ( -0.050747,  0.033767,  0.007091 )     4.87275846
  WF centre and spread    3  ( -0.006996,  0.034309,  0.025339 )     5.39756877
  WF centre and spread    4  ( -0.001413,  0.014060, -0.002600 )     4.95622904
  WF centre and spread    5  ( -0.000108, -0.000056,  0.000400 )     0.38909428
  WF centre and spread    6  (  0.000247,  0.000020, -0.000166 )     0.39147300
  WF centre and spread    7  ( -0.000146, -0.000074,  0.000090 )     0.38985574
  WF centre and spread    8  (  0.000029, -0.000024, -0.000004 )     0.39161771
  WF centre and spread    9  ( -0.000038, -0.000032,  0.000048 )     0.39067352
  WF centre and spread   10  (  2.480144,  0.000132, -0.003149 )     2.40565603
  WF centre and spread   11  (  2.400093,  0.007255,  0.033017 )     5.15398556
  WF centre and spread   12  (  2.484244, -0.013410,  0.004381 )     5.29597900
  WF centre and spread   13  (  2.471008, -0.006681, -0.004500 )     4.85899441
  WF centre and spread   14  (  2.479019,  0.000011, -0.000059 )     0.38997518
  WF centre and spread   15  (  2.479535, -0.000019, -0.000193 )     0.39391225
  WF centre and spread   16  (  2.478880,  0.000289,  0.000119 )     0.39069942
  WF centre and spread   17  (  2.478972, -0.000076, -0.000035 )     0.39336859
  WF centre and spread   18  (  2.478994, -0.000006,  0.000053 )     0.39409653
  Sum of centres and spreads ( 22.170368,  0.070151,  0.060486 )    39.36049854

     17     0.140E-01     1.7544270791       39.3604985380       1.50  <-- CONV
        O_D=      0.5387639 O_OD=     22.1065595 O_TOT=     39.3604985 <-- SPRD
 Delta: O_D=  0.1197092E+00 O_OD= -0.1056923E+00 O_TOT=  0.1401693E-01 <-- DLTA
 ------------------------------------------------------------------------------
 Cycle:     18
  WF centre and spread    1  ( -0.001478,  0.000764,  0.000706 )     2.50408638
  WF centre and spread    2  ( -0.050759,  0.033795,  0.007089 )     4.87172296
  WF centre and spread    3  (  0.019257,  0.015840,  0.008866 )     5.30044937
  WF centre and spread    4  ( -0.004517,  0.016576,  0.005803 )     4.94984626
  WF centre and spread    5  ( -0.000112, -0.000055,  0.000399 )     0.38906629
  WF centre and spread    6  (  0.000247,  0.000021, -0.000163 )     0.39141964
  WF centre and spread    7  ( -0.000147, -0.000075,  0.000090 )     0.38980132
  WF centre and spread    8  (  0.000025, -0.000027, -0.000001 )     0.39163555
  WF centre and spread    9  ( -0.000039, -0.000029,  0.000048 )     0.39061871
  WF centre and spread   10  (  2.480116,  0.000199, -0.003116 )     2.40535805
  WF centre and spread   11  (  2.400129,  0.007266,  0.033056 )     5.15322528
  WF centre and spread   12  (  2.501698, -0.015355, -0.000066 )     5.41970906
  WF centre and spread   13  (  2.470703, -0.006637, -0.004225 )     4.85794917
  WF centre and spread   14  (  2.479018,  0.000011, -0.000059 )     0.38993426
  WF centre and spread   15  (  2.479536, -0.000018, -0.000192 )     0.39386952
  WF centre and spread   16  (  2.478879,  0.000289,  0.000119 )     0.39064986
  WF centre and spread   17  (  2.478970, -0.000078, -0.000034 )     0.39334302
  WF centre and spread   18  (  2.478991, -0.000005,  0.000053 )     0.39407297
  Sum of centres and spreads ( 22.210518,  0.052481,  0.048372 )    39.37675766

     18     0.163E-01    16.2252912706       39.3767576558       1.60  <-- CONV
        O_D=      0.5586458 O_OD=     22.1029368 O_TOT=     39.3767577 <-- SPRD
 Delta: O_D=  0.1988183E-01 O_OD= -0.3622711E-02 O_TOT=  0.1625912E-01 <-- DLTA
 ------------------------------------------------------------------------------
 Cycle:     19
  WF centre and spread    1  ( -0.001441,  0.000643,  0.000650 )     2.50046877
  WF centre and spread    2  ( -0.050926,  0.033691,  0.007078 )     4.86659975
  WF centre and spread    3  (  0.015670,  0.015218,  0.009906 )     5.28160092
  WF centre and spread    4  (  0.000208,  0.013580, -0.005456 )     4.96673469
  WF centre and spread    5  ( -0.000107, -0.000057,  0.000398 )     0.38884224
  WF centre and spread    6  (  0.000248,  0.000021, -0.000163 )     0.39117594
  WF centre and spread    7  ( -0.000147, -0.000077,  0.000092 )     0.38954465
  WF centre and spread    8  (  0.000031, -0.000027, -0.000001 )     0.39144986
  WF centre and spread    9  ( -0.000037, -0.000026,  0.000048 )     0.39038706
  WF centre and spread   10  (  2.480147,  0.000160, -0.003200 )     2.40160228
  WF centre and spread   11  (  2.400398,  0.006751,  0.032790 )     5.14865417
  WF centre and spread   12  (  2.474351, -0.008706,  0.008873 )     5.25528352
  WF centre and spread   13  (  2.470031, -0.007075, -0.004334 )     4.85237044
  WF centre and spread   14  (  2.479021,  0.000011, -0.000061 )     0.38974219
  WF centre and spread   15  (  2.479537, -0.000019, -0.000191 )     0.39362619
  WF centre and spread   16  (  2.478879,  0.000288,  0.000118 )     0.39041040
  WF centre and spread   17  (  2.478977, -0.000076, -0.000034 )     0.39316072
  WF centre and spread   18  (  2.478991, -0.000005,  0.000053 )     0.39382531
  Sum of centres and spreads ( 22.183830,  0.054296,  0.046567 )    39.18547911

     19    -0.191E+00     2.4121032521       39.1854791075       1.68  <-- CONV
        O_D=      0.4068351 O_OD=     22.0634689 O_TOT=     39.1854791 <-- SPRD
 Delta: O_D= -0.1518106E+00 O_OD= -0.3946790E-01 O_TOT= -0.1912785E+00 <-- DLTA
 ------------------------------------------------------------------------------
 Cycle:     20
  WF centre and spread    1  ( -0.001530,  0.000787,  0.000783 )     2.49825554
  WF centre and spread    2  ( -0.050975,  0.033801,  0.007024 )     4.86257413
  WF centre and spread    3  (  0.003861,  0.016392,  0.012948 )     5.25802228
  WF centre and spread    4  ( -0.009824,  0.021997,  0.007893 )     4.94181694
  WF centre and spread    5  ( -0.000103, -0.000057,  0.000394 )     0.38866956
  WF centre and spread    6  (  0.000247,  0.000021, -0.000163 )     0.39098188
  WF centre and spread    7  ( -0.000147, -0.000079,  0.000091 )     0.38934404
  WF centre and spread    8  (  0.000034, -0.000028, -0.000001 )     0.39129369
  WF centre and spread    9  ( -0.000034, -0.000023,  0.000048 )     0.39020627
  WF centre and spread   10  (  2.480085,  0.000300, -0.003085 )     2.39926562
  WF centre and spread   11  (  2.400473,  0.006890,  0.032877 )     5.14643086
  WF centre and spread   12  (  2.466559, -0.009224,  0.011316 )     5.23727689
  WF centre and spread   13  (  2.469627, -0.007036, -0.003727 )     4.84839345
  WF centre and spread   14  (  2.479022,  0.000011, -0.000063 )     0.38958671
  WF centre and spread   15  (  2.479537, -0.000019, -0.000189 )     0.39343636
  WF centre and spread   16  (  2.478878,  0.000288,  0.000117 )     0.39022468
  WF centre and spread   17  (  2.478981, -0.000074, -0.000035 )     0.39300105
  WF centre and spread   18  (  2.478992, -0.000005,  0.000053 )     0.39363788
  Sum of centres and spreads ( 22.153684,  0.063941,  0.066281 )    39.10241781

     20    -0.831E-01     2.0687782614       39.1024178130       1.77  <-- CONV
        O_D=      0.3526684 O_OD=     22.0345743 O_TOT=     39.1024178 <-- SPRD
 Delta: O_D= -0.5416674E-01 O_OD= -0.2889455E-01 O_TOT= -0.8306129E-01 <-- DLTA
 ------------------------------------------------------------------------------
 Cycle:     21
  WF centre and spread    1  ( -0.001406,  0.000585,  0.000633 )     2.48882194
  WF centre and spread    2  ( -0.051703,  0.033814,  0.006975 )     4.84829025
  WF centre and spread    3  ( -0.018730,  0.015035,  0.014479 )     5.27746842
  WF centre and spread    4  ( -0.002329,  0.019916,  0.003876 )     4.93000062
  WF centre and spread    5  ( -0.000093, -0.000058,  0.000383 )     0.38805737
  WF centre and spread    6  (  0.000251,  0.000021, -0.000164 )     0.39029839
  WF centre and spread    7  ( -0.000147, -0.000085,  0.000093 )     0.38864991
  WF centre and spread    8  (  0.000042, -0.000026, -0.000001 )     0.39072472
  WF centre and spread    9  ( -0.000026, -0.000016,  0.000049 )     0.38956147
  WF centre and spread   10  (  2.480154,  0.000247, -0.003188 )     2.38931810
  WF centre and spread   11  (  2.400773,  0.006326,  0.032779 )     5.13630656
  WF centre and spread   12  (  2.455300, -0.010166,  0.015256 )     5.22167019
  WF centre and spread   13  (  2.468581, -0.007849, -0.003744 )     4.83356605
  WF centre and spread   14  (  2.479026,  0.000011, -0.000070 )     0.38903140
  WF centre and spread   15  (  2.479541, -0.000019, -0.000184 )     0.39277234
  WF centre and spread   16  (  2.478877,  0.000287,  0.000116 )     0.38958128
  WF centre and spread   17  (  2.478989, -0.000072, -0.000035 )     0.39240340
  WF centre and spread   18  (  2.478996, -0.000006,  0.000054 )     0.39298336
  Sum of centres and spreads ( 22.126097,  0.057945,  0.067307 )    39.02950577

     21    -0.729E-01     0.9432174421       39.0295057703       1.86  <-- CONV
        O_D=      0.3873711 O_OD=     21.9269595 O_TOT=     39.0295058 <-- SPRD
 Delta: O_D=  0.3470277E-01 O_OD= -0.1076148E+00 O_TOT= -0.7291204E-01 <-- DLTA
 ------------------------------------------------------------------------------
 Cycle:     22
  WF centre and spread    1  ( -0.001463,  0.000656,  0.000659 )     2.48728757
  WF centre and spread    2  ( -0.051801,  0.033934,  0.006973 )     4.84602834
  WF centre and spread    3  (  0.000258,  0.012308,  0.010173 )     5.23544734
  WF centre and spread    4  ( -0.005723,  0.018522,  0.003839 )     4.92340582
  WF centre and spread    5  ( -0.000094, -0.000058,  0.000383 )     0.38796742
  WF centre and spread    6  (  0.000253,  0.000021, -0.000163 )     0.39019548
  WF centre and spread    7  ( -0.000147, -0.000086,  0.000095 )     0.38854425
  WF centre and spread    8  (  0.000039, -0.000028,  0.000000 )     0.39065109
  WF centre and spread    9  ( -0.000025, -0.000017,  0.000049 )     0.38946306
  WF centre and spread   10  (  2.480123,  0.000272, -0.003194 )     2.38774612
  WF centre and spread   11  (  2.400738,  0.006541,  0.032927 )     5.13448251
  WF centre and spread   12  (  2.462285, -0.010633,  0.013483 )     5.21402329
  WF centre and spread   13  (  2.468631, -0.007992, -0.003740 )     4.83117681
  WF centre and spread   14  (  2.479025,  0.000011, -0.000070 )     0.38894768
  WF centre and spread   15  (  2.479544, -0.000018, -0.000183 )     0.39267365
  WF centre and spread   16  (  2.478877,  0.000287,  0.000116 )     0.38948357
  WF centre and spread   17  (  2.478988, -0.000073, -0.000034 )     0.39231653
  WF centre and spread   18  (  2.478997, -0.000006,  0.000054 )     0.39288656
  Sum of centres and spreads ( 22.148503,  0.053642,  0.061368 )    38.96272707

     22    -0.668E-01     2.0082413129       38.9627270714       1.95  <-- CONV
        O_D=      0.3364287 O_OD=     21.9111232 O_TOT=     38.9627271 <-- SPRD
 Delta: O_D= -0.5094240E-01 O_OD= -0.1583630E-01 O_TOT= -0.6677870E-01 <-- DLTA
 ------------------------------------------------------------------------------
 Cycle:     23
  WF centre and spread    1  ( -0.001572,  0.000711,  0.000745 )     2.47907891
  WF centre and spread    2  ( -0.052439,  0.034369,  0.006939 )     4.83470897
  WF centre and spread    3  (  0.007046,  0.013280,  0.010005 )     5.22617670
  WF centre and spread    4  ( -0.005943,  0.029112,  0.012758 )     4.93288470
  WF centre and spread    5  ( -0.000091, -0.000059,  0.000377 )     0.38751401
  WF centre and spread    6  (  0.000258,  0.000021, -0.000164 )     0.38968591
  WF centre and spread    7  ( -0.000146, -0.000090,  0.000093 )     0.38802966
  WF centre and spread    8  (  0.000035, -0.000031, -0.000000 )     0.39022584
  WF centre and spread    9  ( -0.000021, -0.000018,  0.000047 )     0.38898554
  WF centre and spread   10  (  2.480083,  0.000450, -0.003094 )     2.37945511
  WF centre and spread   11  (  2.400426,  0.007407,  0.033619 )     5.12480337
  WF centre and spread   12  (  2.468729, -0.011229,  0.012245 )     5.20165995
  WF centre and spread   13  (  2.468675, -0.008701, -0.003750 )     4.81922342
  WF centre and spread   14  (  2.479025,  0.000012, -0.000074 )     0.38853422
  WF centre and spread   15  (  2.479550, -0.000017, -0.000179 )     0.39217964
  WF centre and spread   16  (  2.478877,  0.000288,  0.000117 )     0.38900764
  WF centre and spread   17  (  2.478988, -0.000071, -0.000033 )     0.39186215
  WF centre and spread   18  (  2.478999, -0.000008,  0.000054 )     0.39240532
  Sum of centres and spreads ( 22.160478,  0.065426,  0.069705 )    38.89642106

     23    -0.663E-01     0.8409901222       38.8964210570       2.04  <-- CONV
        O_D=      0.3552786 O_OD=     21.8259673 O_TOT=     38.8964211 <-- SPRD
 Delta: O_D=  0.1884990E-01 O_OD= -0.8515592E-01 O_TOT= -0.6630601E-01 <-- DLTA
 ------------------------------------------------------------------------------
 Cycle:     24
  WF centre and spread    1  ( -0.001676,  0.000579,  0.000619 )     2.43450167
  WF centre and spread    2  ( -0.056610,  0.036366,  0.006554 )     4.76723170
  WF centre and spread    3  (  0.000113,  0.019609,  0.017143 )     5.16171148
  WF centre and spread    4  ( -0.003474,  0.044215, -0.002774 )     5.07362871
  WF centre and spread    5  ( -0.000066, -0.000066,  0.000342 )     0.38500356
  WF centre and spread    6  (  0.000285,  0.000020, -0.000172 )     0.38683162
  WF centre and spread    7  ( -0.000142, -0.000114,  0.000099 )     0.38515607
  WF centre and spread    8  (  0.000029, -0.000030, -0.000002 )     0.38790667
  WF centre and spread    9  ( -0.000003, -0.000020,  0.000043 )     0.38632027
  WF centre and spread   10  (  2.479976,  0.000673, -0.003204 )     2.33625981
  WF centre and spread   11  (  2.399133,  0.010269,  0.036324 )     5.06795108
  WF centre and spread   12  (  2.461536, -0.006921,  0.016159 )     5.16277295
  WF centre and spread   13  (  2.467051, -0.013083, -0.004390 )     4.75310471
  WF centre and spread   14  (  2.479028,  0.000012, -0.000098 )     0.38625008
  WF centre and spread   15  (  2.479582, -0.000012, -0.000160 )     0.38940798
  WF centre and spread   16  (  2.478876,  0.000289,  0.000117 )     0.38633523
  WF centre and spread   17  (  2.478997, -0.000056, -0.000032 )     0.38933519
  WF centre and spread   18  (  2.479010, -0.000018,  0.000054 )     0.38972226
  Sum of centres and spreads ( 22.141644,  0.091713,  0.066620 )    38.62943105

     24    -0.267E+00     1.2733581224       38.6294310479       2.13  <-- CONV
        O_D=      0.5759274 O_OD=     21.3383286 O_TOT=     38.6294310 <-- SPRD
 Delta: O_D=  0.2206487E+00 O_OD= -0.4876387E+00 O_TOT= -0.2669900E+00 <-- DLTA
 ------------------------------------------------------------------------------
 Cycle:     25
  WF centre and spread    1  ( -0.001694, -0.000627,  0.000867 )     2.43870895
  WF centre and spread    2  ( -0.056656,  0.036214,  0.006538 )     4.76925566
  WF centre and spread    3  (  0.002344,  0.018142,  0.015101 )     5.15523346
  WF centre and spread    4  (  0.000845,  0.035341,  0.001184 )     4.92123017
  WF centre and spread    5  ( -0.000062, -0.000072,  0.000342 )     0.38500174
  WF centre and spread    6  (  0.000286,  0.000019, -0.000171 )     0.38678808
  WF centre and spread    7  ( -0.000137, -0.000124,  0.000044 )     0.38527201
  WF centre and spread    8  (  0.000030, -0.000074, -0.000018 )     0.38822220
  WF centre and spread    9  (  0.000006, -0.000019,  0.000035 )     0.38629388
  WF centre and spread   10  (  2.480709,  0.001664, -0.002268 )     2.34832947
  WF centre and spread   11  (  2.399535,  0.010934,  0.036830 )     5.07368974
  WF centre and spread   12  (  2.465757, -0.012294,  0.019397 )     5.17104507
  WF centre and spread   13  (  2.465955, -0.013748, -0.003861 )     4.75682495
  WF centre and spread   14  (  2.479028,  0.000012, -0.000102 )     0.38623057
  WF centre and spread   15  (  2.479581, -0.000003, -0.000159 )     0.38941682
  WF centre and spread   16  (  2.478883,  0.000278,  0.000124 )     0.38638942
  WF centre and spread   17  (  2.479004, -0.000052, -0.000030 )     0.38936477
  WF centre and spread   18  (  2.479029, -0.000020,  0.000060 )     0.38969706
  Sum of centres and spreads ( 22.152441,  0.075571,  0.073914 )    38.50699402

     25    -0.122E+00    38.6988560884       38.5069940222       2.22  <-- CONV
        O_D=      0.3996946 O_OD=     21.3921243 O_TOT=     38.5069940 <-- SPRD
 Delta: O_D= -0.1762328E+00 O_OD=  0.5379573E-01 O_TOT= -0.1224370E+00 <-- DLTA
 ------------------------------------------------------------------------------
 Cycle:     26
  WF centre and spread    1  ( -0.001718, -0.000609,  0.000885 )     2.43796276
  WF centre and spread    2  ( -0.056645,  0.036281,  0.006557 )     4.76736448
  WF centre and spread    3  (  0.003299,  0.016569,  0.013557 )     5.14914327
  WF centre and spread    4  ( -0.010516,  0.045143,  0.009389 )     4.90208483
  WF centre and spread    5  ( -0.000061, -0.000072,  0.000340 )     0.38494294
  WF centre and spread    6  (  0.000286,  0.000019, -0.000170 )     0.38672003
  WF centre and spread    7  ( -0.000137, -0.000125,  0.000042 )     0.38519952
  WF centre and spread    8  (  0.000031, -0.000076, -0.000017 )     0.38815830
  WF centre and spread    9  (  0.000007, -0.000017,  0.000034 )     0.38622939
  WF centre and spread   10  (  2.480688,  0.001696, -0.002240 )     2.34744605
  WF centre and spread   11  (  2.399593,  0.010940,  0.036820 )     5.07238057
  WF centre and spread   12  (  2.467799, -0.013535,  0.018435 )     5.16575689
  WF centre and spread   13  (  2.465217, -0.013099, -0.003124 )     4.75520038
  WF centre and spread   14  (  2.479028,  0.000012, -0.000102 )     0.38617675
  WF centre and spread   15  (  2.479581, -0.000003, -0.000158 )     0.38934877
  WF centre and spread   16  (  2.478883,  0.000278,  0.000124 )     0.38632274
  WF centre and spread   17  (  2.479005, -0.000053, -0.000030 )     0.38930070
  WF centre and spread   18  (  2.479030, -0.000021,  0.000060 )     0.38963457
  Sum of centres and spreads ( 22.143370,  0.083328,  0.080401 )    38.46937293

     26    -0.376E-01     1.7807231722       38.4693729343       2.32  <-- CONV
        O_D=      0.3745004 O_OD=     21.3796975 O_TOT=     38.4693729 <-- SPRD
 Delta: O_D= -0.2519424E-01 O_OD= -0.1242685E-01 O_TOT= -0.3762109E-01 <-- DLTA
 ------------------------------------------------------------------------------
 Cycle:     27
  WF centre and spread    1  ( -0.001614, -0.000765,  0.000741 )     2.43595628
  WF centre and spread    2  ( -0.056866,  0.036168,  0.006686 )     4.76186618
  WF centre and spread    3  (  0.004265,  0.013177,  0.010524 )     5.13954461
  WF centre and spread    4  ( -0.005348,  0.045920,  0.012726 )     4.88906779
  WF centre and spread    5  ( -0.000059, -0.000071,  0.000334 )     0.38477609
  WF centre and spread    6  (  0.000288,  0.000019, -0.000169 )     0.38652618
  WF centre and spread    7  ( -0.000137, -0.000127,  0.000038 )     0.38499121
  WF centre and spread    8  (  0.000034, -0.000077, -0.000015 )     0.38797483
  WF centre and spread    9  (  0.000009, -0.000013,  0.000033 )     0.38604360
  WF centre and spread   10  (  2.480745,  0.001579, -0.002306 )     2.34482172
  WF centre and spread   11  (  2.399936,  0.010382,  0.036588 )     5.06866983
  WF centre and spread   12  (  2.469160, -0.015393,  0.017219 )     5.15645160
  WF centre and spread   13  (  2.463859, -0.012136, -0.002042 )     4.75098205
  WF centre and spread   14  (  2.479029,  0.000011, -0.000104 )     0.38602362
  WF centre and spread   15  (  2.479582, -0.000002, -0.000155 )     0.38915436
  WF centre and spread   16  (  2.478883,  0.000277,  0.000123 )     0.38613152
  WF centre and spread   17  (  2.479007, -0.000053, -0.000029 )     0.38911892
  WF centre and spread   18  (  2.479034, -0.000022,  0.000060 )     0.38945515
  Sum of centres and spreads ( 22.149808,  0.078875,  0.080251 )    38.41755554

     27    -0.518E-01     1.4548171922       38.4175555356       2.42  <-- CONV
        O_D=      0.3595966 O_OD=     21.3427838 O_TOT=     38.4175555 <-- SPRD
 Delta: O_D= -0.1490376E-01 O_OD= -0.3691363E-01 O_TOT= -0.5181740E-01 <-- DLTA
 ------------------------------------------------------------------------------
 Cycle:     28
  WF centre and spread    1  ( -0.001505, -0.000705,  0.000554 )     2.42414890
  WF centre and spread    2  ( -0.057710,  0.036236,  0.007061 )     4.73669622
  WF centre and spread    3  ( -0.003278,  0.006867,  0.006728 )     5.12609465
  WF centre and spread    4  (  0.009606,  0.029459,  0.020969 )     4.86421974
  WF centre and spread    5  ( -0.000052, -0.000064,  0.000308 )     0.38403446
  WF centre and spread    6  (  0.000297,  0.000019, -0.000168 )     0.38565921
  WF centre and spread    7  ( -0.000137, -0.000138,  0.000034 )     0.38406769
  WF centre and spread    8  (  0.000045, -0.000067, -0.000013 )     0.38716725
  WF centre and spread    9  (  0.000011, -0.000001,  0.000035 )     0.38522976
  WF centre and spread   10  (  2.480770,  0.001400, -0.002402 )     2.33127032
  WF centre and spread   11  (  2.400839,  0.009496,  0.036262 )     5.04813968
  WF centre and spread   12  (  2.455772, -0.015189,  0.019220 )     5.14396836
  WF centre and spread   13  (  2.465810, -0.013887, -0.002375 )     4.73116649
  WF centre and spread   14  (  2.479033,  0.000013, -0.000113 )     0.38534194
  WF centre and spread   15  (  2.479590, -0.000002, -0.000146 )     0.38828802
  WF centre and spread   16  (  2.478882,  0.000273,  0.000121 )     0.38528011
  WF centre and spread   17  (  2.479016, -0.000050, -0.000029 )     0.38831813
  WF centre and spread   18  (  2.479043, -0.000018,  0.000062 )     0.38864952
  Sum of centres and spreads ( 22.146033,  0.053641,  0.086107 )    38.26774044

     28    -0.150E+00     1.1377852869       38.2677404424       2.50  <-- CONV
        O_D=      0.3830624 O_OD=     21.1695029 O_TOT=     38.2677404 <-- SPRD
 Delta: O_D=  0.2346583E-01 O_OD= -0.1732809E+00 O_TOT= -0.1498151E+00 <-- DLTA
 ------------------------------------------------------------------------------
 Cycle:     29
  WF centre and spread    1  ( -0.001484, -0.000554,  0.000375 )     2.40826434
  WF centre and spread    2  ( -0.059013,  0.036890,  0.006999 )     4.70005909
  WF centre and spread    3  ( -0.001188,  0.005237,  0.004695 )     5.09959868
  WF centre and spread    4  (  0.013463,  0.015987,  0.013207 )     4.83219047
  WF centre and spread    5  ( -0.000044, -0.000060,  0.000282 )     0.38302222
  WF centre and spread    6  (  0.000310,  0.000020, -0.000169 )     0.38445633
  WF centre and spread    7  ( -0.000137, -0.000150,  0.000036 )     0.38280384
  WF centre and spread    8  (  0.000054, -0.000065, -0.000010 )     0.38607468
  WF centre and spread    9  (  0.000015,  0.000007,  0.000036 )     0.38411328
  WF centre and spread   10  (  2.480669,  0.001166, -0.002646 )     2.31369927
  WF centre and spread   11  (  2.401591,  0.009284,  0.036159 )     5.01934173
  WF centre and spread   12  (  2.465242, -0.021175,  0.013759 )     5.12465630
  WF centre and spread   13  (  2.468711, -0.015184, -0.003775 )     4.70617719
  WF centre and spread   14  (  2.479036,  0.000015, -0.000125 )     0.38440329
  WF centre and spread   15  (  2.479601, -0.000000, -0.000133 )     0.38709505
  WF centre and spread   16  (  2.478881,  0.000271,  0.000120 )     0.38410305
  WF centre and spread   17  (  2.479023, -0.000048, -0.000027 )     0.38721905
  WF centre and spread   18  (  2.479053, -0.000015,  0.000063 )     0.38754475
  Sum of centres and spreads ( 22.163783,  0.031623,  0.068847 )    38.05482261

     29    -0.213E+00     1.6136707898       38.0548226126       2.59  <-- CONV
        O_D=      0.4109290 O_OD=     20.9287185 O_TOT=     38.0548226 <-- SPRD
 Delta: O_D=  0.2786656E-01 O_OD= -0.2407844E+00 O_TOT= -0.2129178E+00 <-- DLTA
 ------------------------------------------------------------------------------
 Cycle:     30
  WF centre and spread    1  ( -0.001778, -0.000043,  0.000249 )     2.36005296
  WF centre and spread    2  ( -0.079107,  0.020972, -0.020254 )     4.79324221
  WF centre and spread    3  ( -0.025523,  0.001123,  0.006072 )     5.10472762
  WF centre and spread    4  ( -0.016872,  0.030854,  0.013070 )     4.76955936
  WF centre and spread    5  ( -0.000017, -0.000069,  0.000213 )     0.38019049
  WF centre and spread    6  (  0.000353,  0.000022, -0.000174 )     0.38101290
  WF centre and spread    7  ( -0.000132, -0.000176,  0.000043 )     0.37925615
  WF centre and spread    8  (  0.000070, -0.000079, -0.000001 )     0.38312712
  WF centre and spread    9  (  0.000019,  0.000013,  0.000032 )     0.38096068
  WF centre and spread   10  (  2.480277,  0.000651, -0.003149 )     2.26414390
  WF centre and spread   11  (  2.402356,  0.012024,  0.037685 )     4.92229460
  WF centre and spread   12  (  2.453345, -0.016071,  0.015949 )     5.06997718
  WF centre and spread   13  (  2.465844, -0.005314,  0.002331 )     4.64376387
  WF centre and spread   14  (  2.479044,  0.000015, -0.000161 )     0.38175599
  WF centre and spread   15  (  2.479643,  0.000006, -0.000104 )     0.38370405
  WF centre and spread   16  (  2.478878,  0.000266,  0.000114 )     0.38075095
  WF centre and spread   17  (  2.479043, -0.000039, -0.000022 )     0.38412367
  WF centre and spread   18  (  2.479071, -0.000023,  0.000058 )     0.38442318
  Sum of centres and spreads ( 22.074515,  0.044129,  0.051953 )    37.74706688

     30    -0.308E+00     1.4513564825       37.7470668833       2.67  <-- CONV
        O_D=      0.8083010 O_OD=     20.2235907 O_TOT=     37.7470669 <-- SPRD
 Delta: O_D=  0.3973721E+00 O_OD= -0.7051278E+00 O_TOT= -0.3077557E+00 <-- DLTA
 ------------------------------------------------------------------------------
 Cycle:     31
  WF centre and spread    1  ( -0.001668, -0.000232,  0.000203 )     2.35910794
  WF centre and spread    2  ( -0.061156,  0.037250,  0.004664 )     4.64526574
  WF centre and spread    3  ( -0.009902,  0.001340,  0.004557 )     5.02457491
  WF centre and spread    4  ( -0.011079,  0.037015,  0.017913 )     4.74290367
  WF centre and spread    5  ( -0.000017, -0.000070,  0.000214 )     0.38017588
  WF centre and spread    6  (  0.000355,  0.000023, -0.000174 )     0.38100586
  WF centre and spread    7  ( -0.000131, -0.000174,  0.000041 )     0.37928619
  WF centre and spread    8  (  0.000069, -0.000081,  0.000000 )     0.38309982
  WF centre and spread    9  (  0.000020,  0.000016,  0.000034 )     0.38093240
  WF centre and spread   10  (  2.480218,  0.000582, -0.003176 )     2.26742126
  WF centre and spread   11  (  2.401159,  0.012524,  0.037522 )     4.92340384
  WF centre and spread   12  (  2.458731, -0.017522,  0.015764 )     5.05341235
  WF centre and spread   13  (  2.467625, -0.007429,  0.003612 )     4.65024463
  WF centre and spread   14  (  2.479045,  0.000012, -0.000159 )     0.38179075
  WF centre and spread   15  (  2.479633,  0.000004, -0.000102 )     0.38369012
  WF centre and spread   16  (  2.478878,  0.000272,  0.000115 )     0.38073542
  WF centre and spread   17  (  2.479041, -0.000038, -0.000025 )     0.38410025
  WF centre and spread   18  (  2.479071, -0.000025,  0.000057 )     0.38439904
  Sum of centres and spreads ( 22.119893,  0.063467,  0.081062 )    37.48555008

     31    -0.262E+00    14.4478923628       37.4855500845       2.78  <-- CONV
        O_D=      0.5431772 O_OD=     20.2271978 O_TOT=     37.4855501 <-- SPRD
 Delta: O_D= -0.2651238E+00 O_OD=  0.3607033E-02 O_TOT= -0.2615168E+00 <-- DLTA
 ------------------------------------------------------------------------------
 Cycle:     32
  WF centre and spread    1  ( -0.001674, -0.000342,  0.000198 )     2.35836604
  WF centre and spread    2  ( -0.063560,  0.036224,  0.001551 )     4.63592346
  WF centre and spread    3  ( -0.002477,  0.003167,  0.005831 )     5.00399567
  WF centre and spread    4  ( -0.004253,  0.044234,  0.023552 )     4.74120709
  WF centre and spread    5  ( -0.000017, -0.000070,  0.000214 )     0.38014572
  WF centre and spread    6  (  0.000356,  0.000023, -0.000174 )     0.38097482
  WF centre and spread    7  ( -0.000131, -0.000173,  0.000039 )     0.37925369
  WF centre and spread    8  (  0.000067, -0.000083,  0.000000 )     0.38307033
  WF centre and spread    9  (  0.000022,  0.000016,  0.000034 )     0.38090080
  WF centre and spread   10  (  2.480219,  0.000556, -0.003183 )     2.26722353
  WF centre and spread   11  (  2.401082,  0.012624,  0.037590 )     4.92226294
  WF centre and spread   12  (  2.475745, -0.025617,  0.010795 )     5.06245091
  WF centre and spread   13  (  2.467836, -0.008495,  0.002901 )     4.64821245
  WF centre and spread   14  (  2.479043,  0.000012, -0.000161 )     0.38176983
  WF centre and spread   15  (  2.479633,  0.000004, -0.000101 )     0.38365959
  WF centre and spread   16  (  2.478878,  0.000271,  0.000115 )     0.38070270
  WF centre and spread   17  (  2.479040, -0.000039, -0.000025 )     0.38406750
  WF centre and spread   18  (  2.479073, -0.000025,  0.000057 )     0.38436635
  Sum of centres and spreads ( 22.148883,  0.062288,  0.079233 )    37.45855343

     32    -0.270E-01     2.6642081485       37.4585534297       2.87  <-- CONV
        O_D=      0.5230189 O_OD=     20.2203594 O_TOT=     37.4585534 <-- SPRD
 Delta: O_D= -0.2015827E-01 O_OD= -0.6838382E-02 O_TOT= -0.2699665E-01 <-- DLTA
 ------------------------------------------------------------------------------
 Cycle:     33
  WF centre and spread    1  ( -0.001704, -0.000562,  0.000121 )     2.35566912
  WF centre and spread    2  ( -0.065063,  0.029788,  0.004658 )     4.60947214
  WF centre and spread    3  (  0.007109,  0.008093,  0.007639 )     4.97868193
  WF centre and spread    4  (  0.001339,  0.036685,  0.020697 )     4.70517233
  WF centre and spread    5  ( -0.000018, -0.000069,  0.000213 )     0.38003557
  WF centre and spread    6  (  0.000360,  0.000023, -0.000175 )     0.38085455
  WF centre and spread    7  ( -0.000130, -0.000170,  0.000037 )     0.37913047
  WF centre and spread    8  (  0.000063, -0.000082, -0.000001 )     0.38296269
  WF centre and spread    9  (  0.000021,  0.000015,  0.000035 )     0.38079183
  WF centre and spread   10  (  2.480191,  0.000473, -0.003195 )     2.26658751
  WF centre and spread   11  (  2.400786,  0.013013,  0.037785 )     4.91777741
  WF centre and spread   12  (  2.476273, -0.019437,  0.014272 )     5.03967415
  WF centre and spread   13  (  2.468716, -0.011877, -0.000000 )     4.64296335
  WF centre and spread   14  (  2.479040,  0.000010, -0.000163 )     0.38169161
  WF centre and spread   15  (  2.479634,  0.000005, -0.000102 )     0.38354378
  WF centre and spread   16  (  2.478879,  0.000272,  0.000116 )     0.38058017
  WF centre and spread   17  (  2.479038, -0.000037, -0.000026 )     0.38394896
  WF centre and spread   18  (  2.479072, -0.000027,  0.000057 )     0.38425352
  Sum of centres and spreads ( 22.163606,  0.056115,  0.081969 )    37.33379110

     33    -0.125E+00     3.7115992304       37.3337911007       2.96  <-- CONV
        O_D=      0.4251814 O_OD=     20.1934346 O_TOT=     37.3337911 <-- SPRD
 Delta: O_D= -0.9783753E-01 O_OD= -0.2692480E-01 O_TOT= -0.1247623E+00 <-- DLTA
 ------------------------------------------------------------------------------
 Cycle:     34
  WF centre and spread    1  ( -0.001731, -0.000681,  0.000036 )     2.35057131
  WF centre and spread    2  ( -0.064046,  0.024894,  0.012962 )     4.59502161
  WF centre and spread    3  ( -0.004716,  0.012985,  0.014882 )     4.96640207
  WF centre and spread    4  (  0.004741,  0.029872,  0.017863 )     4.68600129
  WF centre and spread    5  ( -0.000015, -0.000069,  0.000209 )     0.37982827
  WF centre and spread    6  (  0.000365,  0.000022, -0.000178 )     0.38061736
  WF centre and spread    7  ( -0.000129, -0.000168,  0.000040 )     0.37888676
  WF centre and spread    8  (  0.000062, -0.000075, -0.000003 )     0.38275217
  WF centre and spread    9  (  0.000021,  0.000011,  0.000036 )     0.38057185
  WF centre and spread   10  (  2.480200,  0.000393, -0.003204 )     2.26335676
  WF centre and spread   11  (  2.400306,  0.013881,  0.038349 )     4.90834839
[...]
        O_D=      0.3869310 O_OD=     18.3750519 O_TOT=     35.4771580 <-- SPRD
 Delta: O_D= -0.2209017E-01 O_OD= -0.2555552E-01 O_TOT= -0.4764569E-01 <-- DLTA
 ------------------------------------------------------------------------------
 Cycle:     92
  WF centre and spread    1  ( -0.002036, -0.000380, -0.002030 )     2.19208014
  WF centre and spread    2  ( -0.070408,  0.042172,  0.029950 )     4.27249054
  WF centre and spread    3  (  0.012687,  0.005593,  0.016692 )     4.66778103
  WF centre and spread    4  ( -0.004383,  0.036241,  0.019795 )     4.43643014
  WF centre and spread    5  (  0.000052, -0.000054, -0.000087 )     0.37391148
  WF centre and spread    6  (  0.000517,  0.000021, -0.000171 )     0.37274149
  WF centre and spread    7  ( -0.000097, -0.000226,  0.000000 )     0.37078813
  WF centre and spread    8  (  0.000032,  0.000045,  0.000003 )     0.37590007
  WF centre and spread    9  (  0.000028,  0.000016,  0.000031 )     0.37315063
  WF centre and spread   10  (  2.481374, -0.000523, -0.005490 )     2.14246149
  WF centre and spread   11  (  2.404136,  0.027980,  0.050608 )     4.71025628
  WF centre and spread   12  (  2.480312, -0.020058,  0.020329 )     4.80378682
  WF centre and spread   13  (  2.471981, -0.013101,  0.024685 )     4.47433766
  WF centre and spread   14  (  2.479027,  0.000021, -0.000342 )     0.37592740
  WF centre and spread   15  (  2.479710,  0.000026, -0.000022 )     0.37532640
  WF centre and spread   16  (  2.478903,  0.000173,  0.000088 )     0.37225764
  WF centre and spread   17  (  2.479155, -0.000053, -0.000009 )     0.37676975
  WF centre and spread   18  (  2.479135,  0.000011,  0.000044 )     0.37701799
  Sum of centres and spreads ( 22.170128,  0.077904,  0.154073 )    35.44341510

     92    -0.337E-01     2.0113021195       35.4434150994       8.49  <-- CONV
        O_D=      0.3567016 O_OD=     18.3715384 O_TOT=     35.4434151 <-- SPRD
 Delta: O_D= -0.3022944E-01 O_OD= -0.3513447E-02 O_TOT= -0.3374289E-01 <-- DLTA
 ------------------------------------------------------------------------------
 Cycle:     93
  WF centre and spread    1  ( -0.002043, -0.000313, -0.001994 )     2.19090845
  WF centre and spread    2  ( -0.070746,  0.042141,  0.030272 )     4.26934562
  WF centre and spread    3  (  0.014607,  0.004467,  0.015112 )     4.66799002
  WF centre and spread    4  ( -0.013342,  0.040289,  0.022076 )     4.43929391
  WF centre and spread    5  (  0.000052, -0.000054, -0.000089 )     0.37386090
  WF centre and spread    6  (  0.000519,  0.000021, -0.000171 )     0.37268551
  WF centre and spread    7  ( -0.000097, -0.000226,  0.000000 )     0.37071085
  WF centre and spread    8  (  0.000031,  0.000045,  0.000003 )     0.37585360
  WF centre and spread    9  (  0.000027,  0.000016,  0.000032 )     0.37309489
  WF centre and spread   10  (  2.481367, -0.000537, -0.005524 )     2.14108921
  WF centre and spread   11  (  2.404083,  0.027915,  0.051030 )     4.70745139
  WF centre and spread   12  (  2.482655, -0.020201,  0.018996 )     4.80258607
  WF centre and spread   13  (  2.472482, -0.013513,  0.023047 )     4.45620787
  WF centre and spread   14  (  2.479026,  0.000022, -0.000345 )     0.37587946
  WF centre and spread   15  (  2.479711,  0.000026, -0.000021 )     0.37526270
  WF centre and spread   16  (  2.478903,  0.000171,  0.000085 )     0.37219991
  WF centre and spread   17  (  2.479155, -0.000052, -0.000009 )     0.37671981
  WF centre and spread   18  (  2.479132,  0.000012,  0.000044 )     0.37696756
  Sum of centres and spreads ( 22.165525,  0.080229,  0.152544 )    35.41810771

     93    -0.253E-01     0.9439271363       35.4181077135       8.58  <-- CONV
        O_D=      0.3499262 O_OD=     18.3530064 O_TOT=     35.4181077 <-- SPRD
 Delta: O_D= -0.6775397E-02 O_OD= -0.1853199E-01 O_TOT= -0.2530739E-01 <-- DLTA
 ------------------------------------------------------------------------------
 Cycle:     94
  WF centre and spread    1  ( -0.001997, -0.000376, -0.002042 )     2.19110069
  WF centre and spread    2  ( -0.070658,  0.042116,  0.030540 )     4.26874194
  WF centre and spread    3  (  0.015122,  0.006201,  0.016427 )     4.66480421
  WF centre and spread    4  ( -0.000599,  0.031889,  0.015851 )     4.43118490
  WF centre and spread    5  (  0.000052, -0.000054, -0.000090 )     0.37385091
  WF centre and spread    6  (  0.000520,  0.000021, -0.000171 )     0.37267490
  WF centre and spread    7  ( -0.000097, -0.000227, -0.000000 )     0.37069590
  WF centre and spread    8  (  0.000031,  0.000046,  0.000003 )     0.37584360
  WF centre and spread    9  (  0.000026,  0.000016,  0.000032 )     0.37308410
  WF centre and spread   10  (  2.481408, -0.000597, -0.005564 )     2.14103304
  WF centre and spread   11  (  2.404204,  0.027761,  0.050992 )     4.70757387
  WF centre and spread   12  (  2.482494, -0.020087,  0.018563 )     4.80090018
  WF centre and spread   13  (  2.472407, -0.013682,  0.022371 )     4.45301140
  WF centre and spread   14  (  2.479026,  0.000022, -0.000345 )     0.37587041
  WF centre and spread   15  (  2.479712,  0.000026, -0.000021 )     0.37525035
  WF centre and spread   16  (  2.478903,  0.000171,  0.000084 )     0.37218855
  WF centre and spread   17  (  2.479155, -0.000051, -0.000009 )     0.37671033
  WF centre and spread   18  (  2.479133,  0.000012,  0.000044 )     0.37695854
  Sum of centres and spreads ( 22.178842,  0.073207,  0.146665 )    35.40147782

     94    -0.166E-01     2.0574485800       35.4014778182       8.66  <-- CONV
        O_D=      0.3356078 O_OD=     18.3506949 O_TOT=     35.4014778 <-- SPRD
 Delta: O_D= -0.1431836E-01 O_OD= -0.2311538E-02 O_TOT= -0.1662990E-01 <-- DLTA
 ------------------------------------------------------------------------------
 Cycle:     95
  WF centre and spread    1  ( -0.001993, -0.000320, -0.002013 )     2.19088128
  WF centre and spread    2  ( -0.070204,  0.042794,  0.030832 )     4.26635076
  WF centre and spread    3  (  0.009987,  0.006209,  0.017582 )     4.66459091
  WF centre and spread    4  ( -0.005968,  0.035091,  0.020030 )     4.41860736
  WF centre and spread    5  (  0.000053, -0.000054, -0.000093 )     0.37380848
  WF centre and spread    6  (  0.000522,  0.000021, -0.000171 )     0.37262828
  WF centre and spread    7  ( -0.000097, -0.000228, -0.000001 )     0.37063103
  WF centre and spread    8  (  0.000032,  0.000047,  0.000003 )     0.37580297
  WF centre and spread    9  (  0.000025,  0.000016,  0.000033 )     0.37303545
  WF centre and spread   10  (  2.481419, -0.000581, -0.005568 )     2.14027425
  WF centre and spread   11  (  2.404280,  0.027974,  0.051243 )     4.70651680
  WF centre and spread   12  (  2.480461, -0.020149,  0.018544 )     4.80052436
  WF centre and spread   13  (  2.472618, -0.013935,  0.021073 )     4.43897972
  WF centre and spread   14  (  2.479026,  0.000023, -0.000347 )     0.37583036
  WF centre and spread   15  (  2.479712,  0.000026, -0.000020 )     0.37519640
  WF centre and spread   16  (  2.478904,  0.000169,  0.000082 )     0.37213977
  WF centre and spread   17  (  2.479156, -0.000051, -0.000009 )     0.37666898
  WF centre and spread   18  (  2.479131,  0.000013,  0.000044 )     0.37691703
  Sum of centres and spreads ( 22.167064,  0.077065,  0.151244 )    35.36938418

     95    -0.321E-01     1.2967473277       35.3693841840       8.77  <-- CONV
        O_D=      0.3168219 O_OD=     18.3373872 O_TOT=     35.3693842 <-- SPRD
 Delta: O_D= -0.1878590E-01 O_OD= -0.1330774E-01 O_TOT= -0.3209363E-01 <-- DLTA
 ------------------------------------------------------------------------------
 Cycle:     96
  WF centre and spread    1  ( -0.001957, -0.000288, -0.002072 )     2.18965808
  WF centre and spread    2  ( -0.073081,  0.039620,  0.033410 )     4.26207067
  WF centre and spread    3  (  0.012324,  0.001474,  0.014464 )     4.66932600
  WF centre and spread    4  ( -0.005021,  0.029507,  0.016728 )     4.40612692
  WF centre and spread    5  (  0.000054, -0.000053, -0.000101 )     0.37371399
  WF centre and spread    6  (  0.000527,  0.000022, -0.000170 )     0.37252046
  WF centre and spread    7  ( -0.000097, -0.000228, -0.000002 )     0.37048361
  WF centre and spread    8  (  0.000030,  0.000050,  0.000004 )     0.37571206
  WF centre and spread    9  (  0.000024,  0.000018,  0.000034 )     0.37292545
  WF centre and spread   10  (  2.481432, -0.000704, -0.005670 )     2.13814354
  WF centre and spread   11  (  2.404369,  0.027986,  0.051786 )     4.70310661
  WF centre and spread   12  (  2.480284, -0.019291,  0.021497 )     4.80430626
  WF centre and spread   13  (  2.472176, -0.013805,  0.017250 )     4.40984882
  WF centre and spread   14  (  2.479025,  0.000023, -0.000351 )     0.37574180
  WF centre and spread   15  (  2.479714,  0.000026, -0.000019 )     0.37507357
  WF centre and spread   16  (  2.478904,  0.000165,  0.000077 )     0.37202970
  WF centre and spread   17  (  2.479159, -0.000050, -0.000008 )     0.37657402
  WF centre and spread   18  (  2.479131,  0.000013,  0.000044 )     0.37681997
  Sum of centres and spreads ( 22.166998,  0.064484,  0.146901 )    35.32418154

     96    -0.452E-01     0.9452047799       35.3241815442       8.90  <-- CONV
        O_D=      0.3043138 O_OD=     18.3046926 O_TOT=     35.3241815 <-- SPRD
 Delta: O_D= -0.1250809E-01 O_OD= -0.3269455E-01 O_TOT= -0.4520264E-01 <-- DLTA
 ------------------------------------------------------------------------------
 Cycle:     97
  WF centre and spread    1  ( -0.001966, -0.000298, -0.002073 )     2.18931609
  WF centre and spread    2  ( -0.071073,  0.042666,  0.031205 )     4.25968508
  WF centre and spread    3  (  0.012656,  0.006160,  0.016787 )     4.65753891
  WF centre and spread    4  ( -0.003757,  0.030686,  0.017526 )     4.40475185
  WF centre and spread    5  (  0.000053, -0.000053, -0.000101 )     0.37370244
  WF centre and spread    6  (  0.000527,  0.000022, -0.000170 )     0.37250865
  WF centre and spread    7  ( -0.000097, -0.000229, -0.000002 )     0.37046746
  WF centre and spread    8  (  0.000030,  0.000050,  0.000004 )     0.37570133
  WF centre and spread    9  (  0.000022,  0.000017,  0.000034 )     0.37291492
  WF centre and spread   10  (  2.481451, -0.000688, -0.005690 )     2.13778628
  WF centre and spread   11  (  2.404372,  0.027975,  0.051841 )     4.70260321
  WF centre and spread   12  (  2.480747, -0.018855,  0.018571 )     4.79517266
  WF centre and spread   13  (  2.472174, -0.013973,  0.017145 )     4.40732541
  WF centre and spread   14  (  2.479025,  0.000024, -0.000351 )     0.37573119
  WF centre and spread   15  (  2.479714,  0.000026, -0.000019 )     0.37506073
  WF centre and spread   16  (  2.478904,  0.000166,  0.000077 )     0.37201677
  WF centre and spread   17  (  2.479158, -0.000050, -0.000008 )     0.37656327
  WF centre and spread   18  (  2.479130,  0.000014,  0.000044 )     0.37680954
  Sum of centres and spreads ( 22.171071,  0.073660,  0.144818 )    35.29565580

     97    -0.285E-01     1.9338951481       35.2956558006       9.03  <-- CONV
        O_D=      0.2798666 O_OD=     18.3006141 O_TOT=     35.2956558 <-- SPRD
 Delta: O_D= -0.2444723E-01 O_OD= -0.4078510E-02 O_TOT= -0.2852574E-01 <-- DLTA
 ------------------------------------------------------------------------------
 Cycle:     98
  WF centre and spread    1  ( -0.001956, -0.000327, -0.002183 )     2.18806671
  WF centre and spread    2  ( -0.070546,  0.041382,  0.037814 )     4.25875392
  WF centre and spread    3  (  0.016789,  0.004191,  0.016352 )     4.65745994
  WF centre and spread    4  ( -0.002695,  0.028005,  0.015593 )     4.40139610
  WF centre and spread    5  (  0.000053, -0.000053, -0.000106 )     0.37365625
  WF centre and spread    6  (  0.000529,  0.000022, -0.000170 )     0.37245455
  WF centre and spread    7  ( -0.000097, -0.000229, -0.000003 )     0.37039500
  WF centre and spread    8  (  0.000029,  0.000050,  0.000004 )     0.37565454
  WF centre and spread    9  (  0.000022,  0.000017,  0.000034 )     0.37286247
  WF centre and spread   10  (  2.481452, -0.000770, -0.005735 )     2.13634976
  WF centre and spread   11  (  2.404316,  0.027860,  0.051952 )     4.70047939
  WF centre and spread   12  (  2.486677, -0.022396,  0.016768 )     4.79616122
  WF centre and spread   13  (  2.471600, -0.013907,  0.015568 )     4.39687073
  WF centre and spread   14  (  2.479025,  0.000023, -0.000353 )     0.37568898
  WF centre and spread   15  (  2.479715,  0.000026, -0.000019 )     0.37500065
  WF centre and spread   16  (  2.478905,  0.000164,  0.000076 )     0.37195951
  WF centre and spread   17  (  2.479157, -0.000051, -0.000008 )     0.37651605
  WF centre and spread   18  (  2.479131,  0.000015,  0.000044 )     0.37676060
  Sum of centres and spreads ( 22.182106,  0.064023,  0.145629 )    35.27648638

     98    -0.192E-01     0.7904151161       35.2764863761       9.13  <-- CONV
        O_D=      0.2777217 O_OD=     18.2835896 O_TOT=     35.2764864 <-- SPRD
 Delta: O_D= -0.2144873E-02 O_OD= -0.1702455E-01 O_TOT= -0.1916942E-01 <-- DLTA
 ------------------------------------------------------------------------------
 Cycle:     99
  WF centre and spread    1  ( -0.001936, -0.000400, -0.002346 )     2.18428820
  WF centre and spread    2  ( -0.078173,  0.030939,  0.034337 )     4.26303207
  WF centre and spread    3  (  0.012009,  0.004872,  0.018183 )     4.65152050
  WF centre and spread    4  (  0.001882,  0.025029,  0.014008 )     4.39645745
  WF centre and spread    5  (  0.000055, -0.000053, -0.000117 )     0.37353071
  WF centre and spread    6  (  0.000535,  0.000022, -0.000170 )     0.37230912
  WF centre and spread    7  ( -0.000097, -0.000228, -0.000004 )     0.37020065
  WF centre and spread    8  (  0.000028,  0.000053,  0.000003 )     0.37552934
  WF centre and spread    9  (  0.000020,  0.000017,  0.000035 )     0.37272062
  WF centre and spread   10  (  2.481455, -0.000967, -0.005921 )     2.13216813
  WF centre and spread   11  (  2.404341,  0.027855,  0.052544 )     4.69467286
  WF centre and spread   12  (  2.484643, -0.021859,  0.017386 )     4.79242894
  WF centre and spread   13  (  2.470406, -0.013929,  0.011958 )     4.37385864
  WF centre and spread   14  (  2.479023,  0.000023, -0.000357 )     0.37557113
  WF centre and spread   15  (  2.479716,  0.000026, -0.000017 )     0.37484054
  WF centre and spread   16  (  2.478906,  0.000161,  0.000073 )     0.37180671
  WF centre and spread   17  (  2.479160, -0.000052, -0.000007 )     0.37638905
  WF centre and spread   18  (  2.479131,  0.000016,  0.000043 )     0.37662872
  Sum of centres and spreads ( 22.171105,  0.051526,  0.139630 )    35.22795336

     99    -0.485E-01     1.3613789086       35.2279533579       9.21  <-- CONV
        O_D=      0.2769794 O_OD=     18.2357989 O_TOT=     35.2279534 <-- SPRD
 Delta: O_D= -0.7423376E-03 O_OD= -0.4779068E-01 O_TOT= -0.4853302E-01 <-- DLTA
 ------------------------------------------------------------------------------
 Cycle:    100
  WF centre and spread    1  ( -0.001951, -0.000385, -0.002464 )     2.18134647
  WF centre and spread    2  ( -0.078804,  0.031940,  0.035535 )     4.25802596
  WF centre and spread    3  (  0.008656,  0.006860,  0.019556 )     4.64344721
  WF centre and spread    4  ( -0.005118,  0.012703,  0.007164 )     4.41960362
  WF centre and spread    5  (  0.000056, -0.000053, -0.000125 )     0.37343562
  WF centre and spread    6  (  0.000537,  0.000022, -0.000170 )     0.37219703
  WF centre and spread    7  ( -0.000096, -0.000229, -0.000004 )     0.37005517
  WF centre and spread    8  (  0.000028,  0.000056,  0.000003 )     0.37543507
  WF centre and spread    9  (  0.000019,  0.000017,  0.000036 )     0.37261113
  WF centre and spread   10  (  2.481455, -0.001061, -0.006080 )     2.12910365
  WF centre and spread   11  (  2.404298,  0.028015,  0.052975 )     4.69050733
  WF centre and spread   12  (  2.479514, -0.018454,  0.018849 )     4.78510166
  WF centre and spread   13  (  2.470082, -0.013947,  0.010223 )     4.36191748
  WF centre and spread   14  (  2.479022,  0.000024, -0.000360 )     0.37548246
  WF centre and spread   15  (  2.479718,  0.000026, -0.000017 )     0.37471822
  WF centre and spread   16  (  2.478907,  0.000159,  0.000071 )     0.37169041
  WF centre and spread   17  (  2.479164, -0.000051, -0.000008 )     0.37629113
  WF centre and spread   18  (  2.479132,  0.000016,  0.000043 )     0.37652887
  Sum of centres and spreads ( 22.154617,  0.045658,  0.135228 )    35.20749849

    100    -0.205E-01     1.8110594572       35.2074984917       9.29  <-- CONV
        O_D=      0.2927140 O_OD=     18.1996094 O_TOT=     35.2074985 <-- SPRD
 Delta: O_D=  0.1573463E-01 O_OD= -0.3618950E-01 O_TOT= -0.2045487E-01 <-- DLTA
 ------------------------------------------------------------------------------

 Writing checkpoint file wanup.chk... done

 Final State
  WF centre and spread    1  ( -0.001951, -0.000385, -0.002464 )     2.18134647
  WF centre and spread    2  ( -0.078804,  0.031940,  0.035535 )     4.25802596
  WF centre and spread    3  (  0.008656,  0.006860,  0.019556 )     4.64344721
  WF centre and spread    4  ( -0.005118,  0.012703,  0.007164 )     4.41960362
  WF centre and spread    5  (  0.000056, -0.000053, -0.000125 )     0.37343562
  WF centre and spread    6  (  0.000537,  0.000022, -0.000170 )     0.37219703
  WF centre and spread    7  ( -0.000096, -0.000229, -0.000004 )     0.37005517
  WF centre and spread    8  (  0.000028,  0.000056,  0.000003 )     0.37543507
  WF centre and spread    9  (  0.000019,  0.000017,  0.000036 )     0.37261113
  WF centre and spread   10  (  2.481455, -0.001061, -0.006080 )     2.12910365
  WF centre and spread   11  (  2.404298,  0.028015,  0.052975 )     4.69050733
  WF centre and spread   12  (  2.479514, -0.018454,  0.018849 )     4.78510166
  WF centre and spread   13  (  2.470082, -0.013947,  0.010223 )     4.36191748
  WF centre and spread   14  (  2.479022,  0.000024, -0.000360 )     0.37548246
  WF centre and spread   15  (  2.479718,  0.000026, -0.000017 )     0.37471822
  WF centre and spread   16  (  2.478907,  0.000159,  0.000071 )     0.37169041
  WF centre and spread   17  (  2.479164, -0.000051, -0.000008 )     0.37629113
  WF centre and spread   18  (  2.479132,  0.000016,  0.000043 )     0.37652887
  Sum of centres and spreads ( 22.154617,  0.045658,  0.135228 )    35.20749849

         Spreads (Ang^2)       Omega I      =    16.715175100
        ================       Omega D      =     0.292714018
                               Omega OD     =    18.199609374
    Final Spread (Ang^2)       Omega Total  =    35.207498492
 ------------------------------------------------------------------------------
 Time for wannierise            9.223 (sec)

 Writing checkpoint file wanup.chk... done

 Time for plotting              0.000 (sec)
 Total Execution Time          10.414 (sec)

 *===========================================================================*
 |                             TIMING INFORMATION                            |
 *===========================================================================*
 |    Tag                                                Ncalls      Time (s)|
 |---------------------------------------------------------------------------|
 |kmesh: get                                        :         1         0.800|
 |overlap: allocate                                 :         1         0.003|
 |overlap: read                                     :         1         0.360|
 |wann: main                                        :         1         9.223|
 |plot: main                                        :         1         0.000|
 *---------------------------------------------------------------------------*

 All done: wannier90 exiting
