
     Program PWSCF v.7.0 starts on 29Nov2022 at 12:11:57 

     This program is part of the open-source Quantum ESPRESSO suite
     for quantum simulation of materials; please cite
         "P. Giannozzi et al., J. Phys.:Condens. Matter 21 395502 (2009);
         "P. Giannozzi et al., J. Phys.:Condens. Matter 29 465901 (2017);
         "P. Giannozzi et al., J. Chem. Phys. 152 154105 (2020);
          URL http://www.quantum-espresso.org", 
     in publications or presentations arising from this work. More details at
     http://www.quantum-espresso.org/quote

     Parallel version (MPI), running on    14 processors

     MPI processes distributed on     1 nodes
     R & G space division:  proc/nbgrp/npool/nimage =      14
     3325 MiB available memory on the printing compute node when the environment starts
 
     Waiting for input...
     Reading input from standard input

     Current dimensions of program PWSCF are:
     Max number of different atomic species (ntypx) = 10
     Max number of k-points (npk) =  40000
     Max angular momentum in pseudopotentials (lmaxx) =  4

     Atomic positions and unit cell read from directory:
     ./outputs/Si.save/
 
     Found identity + (  0.0000 -0.5000 -0.5000) symmetry
     This is a supercell, fractional translations are disabled
     Message from routine setup:
     using ibrav=0 with symmetry is DISCOURAGED, use correct ibrav instead

     Subspace diagonalization in iterative solution of the eigenvalue problem:
     one sub-group per band group will be used
     scalapack distributed-memory algorithm (size of sub-group:  3*  3 procs)

 
     Parallelization info
     --------------------
     sticks:   dense  smooth     PW     G-vecs:    dense   smooth      PW
     Min          48      48     15                  938      938     165
     Max          49      49     16                  939      939     168
     Sum         673     673    213                13133    13133    2325
 
     Using Slab Decomposition
 


     bravais-lattice index     =            0
     lattice parameter (alat)  =      10.2630  a.u.
     unit-cell volume          =    1080.9899 (a.u.)^3
     number of atoms/cell      =            8
     number of atomic types    =            1
     number of electrons       =        32.00
     number of Kohn-Sham states=           16
     kinetic-energy cutoff     =      20.0000  Ry
     charge density cutoff     =      80.0000  Ry
     Exchange-correlation= PBESOL
                           (   1   4  10   8   0   0   0)

     celldm(1)=  10.262989  celldm(2)=   0.000000  celldm(3)=   0.000000
     celldm(4)=   0.000000  celldm(5)=   0.000000  celldm(6)=   0.000000

     crystal axes: (cart. coord. in units of alat)
               a(1) = (   1.000000   0.000000   0.000000 )  
               a(2) = (   0.000000   1.000000   0.000000 )  
               a(3) = (   0.000000   0.000000   1.000000 )  

     reciprocal axes: (cart. coord. in units 2 pi/alat)
               b(1) = (  1.000000  0.000000  0.000000 )  
               b(2) = (  0.000000  1.000000  0.000000 )  
               b(3) = (  0.000000  0.000000  1.000000 )  


     PseudoPot. # 1 for Si read from file:
     ./Si.UPF
     MD5 check sum: 0f72aaed442cfea083ff16d3bfdace30
     Pseudo is Ultrasoft + core correction, Zval =  4.0
     Generated using "atomic" code by A. Dal Corso  v.6.0 svn rev. 13079
     Using radial grid of 1141 points,  6 beta functions with: 
                l(1) =   0
                l(2) =   0
                l(3) =   1
                l(4) =   1
                l(5) =   2
                l(6) =   2
     Q(r) pseudized with 0 coefficients 


     atomic species   valence    mass     pseudopotential
        Si             4.00    28.08550     Si( 1.00)

     24 Sym. Ops. (no inversion) found


                                    s                        frac. trans.

      isym =  1     identity                                     

 cryst.   s( 1) = (     1          0          0      )
                  (     0          1          0      )
                  (     0          0          1      )

 cart.    s( 1) = (  1.0000000  0.0000000  0.0000000 )
                  (  0.0000000  1.0000000  0.0000000 )
                  (  0.0000000  0.0000000  1.0000000 )


      isym =  2     180 deg rotation - cart. axis [0,0,1]        

 cryst.   s( 2) = (    -1          0          0      )
                  (     0         -1          0      )
                  (     0          0          1      )

 cart.    s( 2) = ( -1.0000000  0.0000000  0.0000000 )
                  (  0.0000000 -1.0000000  0.0000000 )
                  (  0.0000000  0.0000000  1.0000000 )


      isym =  3     180 deg rotation - cart. axis [0,1,0]        

 cryst.   s( 3) = (    -1          0          0      )
                  (     0          1          0      )
                  (     0          0         -1      )

 cart.    s( 3) = ( -1.0000000  0.0000000  0.0000000 )
                  (  0.0000000  1.0000000  0.0000000 )
                  (  0.0000000  0.0000000 -1.0000000 )


      isym =  4     180 deg rotation - cart. axis [1,0,0]        

 cryst.   s( 4) = (     1          0          0      )
                  (     0         -1          0      )
                  (     0          0         -1      )

 cart.    s( 4) = (  1.0000000  0.0000000  0.0000000 )
                  (  0.0000000 -1.0000000  0.0000000 )
                  (  0.0000000  0.0000000 -1.0000000 )


      isym =  5     120 deg rotation - cart. axis [-1,-1,-1]     

 cryst.   s( 5) = (     0          0          1      )
                  (     1          0          0      )
                  (     0          1          0      )

 cart.    s( 5) = (  0.0000000  1.0000000  0.0000000 )
                  (  0.0000000  0.0000000  1.0000000 )
                  (  1.0000000  0.0000000  0.0000000 )


      isym =  6     120 deg rotation - cart. axis [-1,1,1]       

 cryst.   s( 6) = (     0          0         -1      )
                  (    -1          0          0      )
                  (     0          1          0      )

 cart.    s( 6) = (  0.0000000 -1.0000000  0.0000000 )
                  (  0.0000000  0.0000000  1.0000000 )
                  ( -1.0000000  0.0000000  0.0000000 )


      isym =  7     120 deg rotation - cart. axis [1,1,-1]       

 cryst.   s( 7) = (     0          0         -1      )
                  (     1          0          0      )
                  (     0         -1          0      )

 cart.    s( 7) = (  0.0000000  1.0000000  0.0000000 )
                  (  0.0000000  0.0000000 -1.0000000 )
                  ( -1.0000000  0.0000000  0.0000000 )


      isym =  8     120 deg rotation - cart. axis [1,-1,1]       

 cryst.   s( 8) = (     0          0          1      )
                  (    -1          0          0      )
                  (     0         -1          0      )

 cart.    s( 8) = (  0.0000000 -1.0000000  0.0000000 )
                  (  0.0000000  0.0000000 -1.0000000 )
                  (  1.0000000  0.0000000  0.0000000 )


      isym =  9     120 deg rotation - cart. axis [1,1,1]        

 cryst.   s( 9) = (     0          1          0      )
                  (     0          0          1      )
                  (     1          0          0      )

 cart.    s( 9) = (  0.0000000  0.0000000  1.0000000 )
                  (  1.0000000  0.0000000  0.0000000 )
                  (  0.0000000  1.0000000  0.0000000 )


      isym = 10     120 deg rotation - cart. axis [-1,1,-1]      

 cryst.   s(10) = (     0         -1          0      )
                  (     0          0         -1      )
                  (     1          0          0      )

 cart.    s(10) = (  0.0000000  0.0000000  1.0000000 )
                  ( -1.0000000  0.0000000  0.0000000 )
                  (  0.0000000 -1.0000000  0.0000000 )


      isym = 11     120 deg rotation - cart. axis [1,-1,-1]      

 cryst.   s(11) = (     0         -1          0      )
                  (     0          0          1      )
                  (    -1          0          0      )

 cart.    s(11) = (  0.0000000  0.0000000 -1.0000000 )
                  ( -1.0000000  0.0000000  0.0000000 )
                  (  0.0000000  1.0000000  0.0000000 )


      isym = 12     120 deg rotation - cart. axis [-1,-1,1]      

 cryst.   s(12) = (     0          1          0      )
                  (     0          0         -1      )
                  (    -1          0          0      )

 cart.    s(12) = (  0.0000000  0.0000000 -1.0000000 )
                  (  1.0000000  0.0000000  0.0000000 )
                  (  0.0000000 -1.0000000  0.0000000 )


      isym = 13     inv. 180 deg rotation - cart. axis [1,1,0]   

 cryst.   s(13) = (     0         -1          0      )
                  (    -1          0          0      )
                  (     0          0          1      )

 cart.    s(13) = (  0.0000000 -1.0000000  0.0000000 )
                  ( -1.0000000  0.0000000  0.0000000 )
                  (  0.0000000  0.0000000  1.0000000 )


      isym = 14     inv. 180 deg rotation - cart. axis [1,-1,0]  

 cryst.   s(14) = (     0          1          0      )
                  (     1          0          0      )
                  (     0          0          1      )

 cart.    s(14) = (  0.0000000  1.0000000  0.0000000 )
                  (  1.0000000  0.0000000  0.0000000 )
                  (  0.0000000  0.0000000  1.0000000 )


      isym = 15     inv.  90 deg rotation - cart. axis [0,0,-1]  

 cryst.   s(15) = (     0          1          0      )
                  (    -1          0          0      )
                  (     0          0         -1      )

 cart.    s(15) = (  0.0000000 -1.0000000  0.0000000 )
                  (  1.0000000  0.0000000  0.0000000 )
                  (  0.0000000  0.0000000 -1.0000000 )


      isym = 16     inv.  90 deg rotation - cart. axis [0,0,1]   

 cryst.   s(16) = (     0         -1          0      )
                  (     1          0          0      )
                  (     0          0         -1      )

 cart.    s(16) = (  0.0000000  1.0000000  0.0000000 )
                  ( -1.0000000  0.0000000  0.0000000 )
                  (  0.0000000  0.0000000 -1.0000000 )


      isym = 17     inv. 180 deg rotation - cart. axis [1,0,1]   

 cryst.   s(17) = (     0          0         -1      )
                  (     0          1          0      )
                  (    -1          0          0      )

 cart.    s(17) = (  0.0000000  0.0000000 -1.0000000 )
                  (  0.0000000  1.0000000  0.0000000 )
                  ( -1.0000000  0.0000000  0.0000000 )


      isym = 18     inv. 180 deg rotation - cart. axis [-1,0,1]  

 cryst.   s(18) = (     0          0          1      )
                  (     0          1          0      )
                  (     1          0          0      )

 cart.    s(18) = (  0.0000000  0.0000000  1.0000000 )
                  (  0.0000000  1.0000000  0.0000000 )
                  (  1.0000000  0.0000000  0.0000000 )


      isym = 19     inv.  90 deg rotation - cart. axis [0,1,0]   

 cryst.   s(19) = (     0          0          1      )
                  (     0         -1          0      )
                  (    -1          0          0      )

 cart.    s(19) = (  0.0000000  0.0000000 -1.0000000 )
                  (  0.0000000 -1.0000000  0.0000000 )
                  (  1.0000000  0.0000000  0.0000000 )


      isym = 20     inv.  90 deg rotation - cart. axis [0,-1,0]  

 cryst.   s(20) = (     0          0         -1      )
                  (     0         -1          0      )
                  (     1          0          0      )

 cart.    s(20) = (  0.0000000  0.0000000  1.0000000 )
                  (  0.0000000 -1.0000000  0.0000000 )
                  ( -1.0000000  0.0000000  0.0000000 )


      isym = 21     inv. 180 deg rotation - cart. axis [0,1,1]   

 cryst.   s(21) = (     1          0          0      )
                  (     0          0         -1      )
                  (     0         -1          0      )

 cart.    s(21) = (  1.0000000  0.0000000  0.0000000 )
                  (  0.0000000  0.0000000 -1.0000000 )
                  (  0.0000000 -1.0000000  0.0000000 )


      isym = 22     inv. 180 deg rotation - cart. axis [0,1,-1]  

 cryst.   s(22) = (     1          0          0      )
                  (     0          0          1      )
                  (     0          1          0      )

 cart.    s(22) = (  1.0000000  0.0000000  0.0000000 )
                  (  0.0000000  0.0000000  1.0000000 )
                  (  0.0000000  1.0000000  0.0000000 )


      isym = 23     inv.  90 deg rotation - cart. axis [-1,0,0]  

 cryst.   s(23) = (    -1          0          0      )
                  (     0          0          1      )
                  (     0         -1          0      )

 cart.    s(23) = ( -1.0000000  0.0000000  0.0000000 )
                  (  0.0000000  0.0000000 -1.0000000 )
                  (  0.0000000  1.0000000  0.0000000 )


      isym = 24     inv.  90 deg rotation - cart. axis [1,0,0]   

 cryst.   s(24) = (    -1          0          0      )
                  (     0          0         -1      )
                  (     0          1          0      )

 cart.    s(24) = ( -1.0000000  0.0000000  0.0000000 )
                  (  0.0000000  0.0000000  1.0000000 )
                  (  0.0000000 -1.0000000  0.0000000 )


   Cartesian axes

     site n.     atom                  positions (alat units)
         1           Si  tau(   1) = (   0.0000000   0.0000000   0.0000000  )
         2           Si  tau(   2) = (   0.0000000   0.5000000   0.5000000  )
         3           Si  tau(   3) = (   0.2500000   0.2500000   0.2500000  )
         4           Si  tau(   4) = (   0.5000000   0.0000000   0.5000000  )
         5           Si  tau(   5) = (   0.2500000   0.7500000   0.7500000  )
         6           Si  tau(   6) = (   0.7500000   0.7500000   0.2500000  )
         7           Si  tau(   7) = (   0.7500000   0.2500000   0.7500000  )
         8           Si  tau(   8) = (   0.5000000   0.5000000   0.0000000  )

   Crystallographic axes

     site n.     atom                  positions (cryst. coord.)
         1           Si  tau(   1) = (  0.0000000  0.0000000  0.0000000  )
         2           Si  tau(   2) = (  0.0000000  0.5000000  0.5000000  )
         3           Si  tau(   3) = (  0.2500000  0.2500000  0.2500000  )
         4           Si  tau(   4) = (  0.5000000  0.0000000  0.5000000  )
         5           Si  tau(   5) = (  0.2500000  0.7500000  0.7500000  )
         6           Si  tau(   6) = (  0.7500000  0.7500000  0.2500000  )
         7           Si  tau(   7) = (  0.7500000  0.2500000  0.7500000  )
         8           Si  tau(   8) = (  0.5000000  0.5000000  0.0000000  )

     number of k points=   221
                       cart. coord. in units 2pi/alat
        k(    1) = (   0.0000000   0.0000000   0.0000000), wk =   0.0090498
        k(    2) = (   0.0250000   0.0000000   0.0250000), wk =   0.0090498
        k(    3) = (   0.0500000   0.0000000   0.0500000), wk =   0.0090498
        k(    4) = (   0.0750000   0.0000000   0.0750000), wk =   0.0090498
        k(    5) = (   0.1000000   0.0000000   0.1000000), wk =   0.0090498
        k(    6) = (   0.1250000   0.0000000   0.1250000), wk =   0.0090498
        k(    7) = (   0.1500000   0.0000000   0.1500000), wk =   0.0090498
        k(    8) = (   0.1750000   0.0000000   0.1750000), wk =   0.0090498
        k(    9) = (   0.2000000   0.0000000   0.2000000), wk =   0.0090498
        k(   10) = (   0.2250000   0.0000000   0.2250000), wk =   0.0090498
        k(   11) = (   0.2500000   0.0000000   0.2500000), wk =   0.0090498
        k(   12) = (   0.2750000   0.0000000   0.2750000), wk =   0.0090498
        k(   13) = (   0.3000000   0.0000000   0.3000000), wk =   0.0090498
        k(   14) = (   0.3250000   0.0000000   0.3250000), wk =   0.0090498
        k(   15) = (   0.3500000   0.0000000   0.3500000), wk =   0.0090498
        k(   16) = (   0.3750000   0.0000000   0.3750000), wk =   0.0090498
        k(   17) = (   0.4000000   0.0000000   0.4000000), wk =   0.0090498
        k(   18) = (   0.4250000   0.0000000   0.4250000), wk =   0.0090498
        k(   19) = (   0.4500000   0.0000000   0.4500000), wk =   0.0090498
        k(   20) = (   0.4750000   0.0000000   0.4750000), wk =   0.0090498
        k(   21) = (   0.5000000   0.0000000   0.5000000), wk =   0.0090498
        k(   22) = (   0.5000000   0.0125000   0.5125000), wk =   0.0090498
        k(   23) = (   0.5000000   0.0250000   0.5250000), wk =   0.0090498
        k(   24) = (   0.5000000   0.0375000   0.5375000), wk =   0.0090498
        k(   25) = (   0.5000000   0.0500000   0.5500000), wk =   0.0090498
        k(   26) = (   0.5000000   0.0625000   0.5625000), wk =   0.0090498
        k(   27) = (   0.5000000   0.0750000   0.5750000), wk =   0.0090498
        k(   28) = (   0.5000000   0.0875000   0.5875000), wk =   0.0090498
        k(   29) = (   0.5000000   0.1000000   0.6000000), wk =   0.0090498
        k(   30) = (   0.5000000   0.1125000   0.6125000), wk =   0.0090498
        k(   31) = (   0.5000000   0.1250000   0.6250000), wk =   0.0090498
        k(   32) = (   0.5000000   0.1375000   0.6375000), wk =   0.0090498
        k(   33) = (   0.5000000   0.1500000   0.6500000), wk =   0.0090498
        k(   34) = (   0.5000000   0.1625000   0.6625000), wk =   0.0090498
        k(   35) = (   0.5000000   0.1750000   0.6750000), wk =   0.0090498
        k(   36) = (   0.5000000   0.1875000   0.6875000), wk =   0.0090498
        k(   37) = (   0.5000000   0.2000000   0.7000000), wk =   0.0090498
        k(   38) = (   0.5000000   0.2125000   0.7125000), wk =   0.0090498
        k(   39) = (   0.5000000   0.2250000   0.7250000), wk =   0.0090498
        k(   40) = (   0.5000000   0.2375000   0.7375000), wk =   0.0090498
        k(   41) = (   0.5000000   0.2500000   0.7500000), wk =   0.0090498
        k(   42) = (   0.4937500   0.2562500   0.7500000), wk =   0.0090498
        k(   43) = (   0.4875000   0.2625000   0.7500000), wk =   0.0090498
        k(   44) = (   0.4812500   0.2687500   0.7500000), wk =   0.0090498
        k(   45) = (   0.4750000   0.2750000   0.7500000), wk =   0.0090498
        k(   46) = (   0.4687500   0.2812500   0.7500000), wk =   0.0090498
        k(   47) = (   0.4625000   0.2875000   0.7500000), wk =   0.0090498
        k(   48) = (   0.4562500   0.2937500   0.7500000), wk =   0.0090498
        k(   49) = (   0.4500000   0.3000000   0.7500000), wk =   0.0090498
        k(   50) = (   0.4437500   0.3062500   0.7500000), wk =   0.0090498
        k(   51) = (   0.4375000   0.3125000   0.7500000), wk =   0.0090498
        k(   52) = (   0.4312500   0.3187500   0.7500000), wk =   0.0090498
        k(   53) = (   0.4250000   0.3250000   0.7500000), wk =   0.0090498
        k(   54) = (   0.4187500   0.3312500   0.7500000), wk =   0.0090498
        k(   55) = (   0.4125000   0.3375000   0.7500000), wk =   0.0090498
        k(   56) = (   0.4062500   0.3437500   0.7500000), wk =   0.0090498
        k(   57) = (   0.4000000   0.3500000   0.7500000), wk =   0.0090498
        k(   58) = (   0.3937500   0.3562500   0.7500000), wk =   0.0090498
        k(   59) = (   0.3875000   0.3625000   0.7500000), wk =   0.0090498
        k(   60) = (   0.3812500   0.3687500   0.7500000), wk =   0.0090498
        k(   61) = (   0.3750000   0.3750000   0.7500000), wk =   0.0090498
        k(   62) = (   0.3562500   0.3562500   0.7125000), wk =   0.0090498
        k(   63) = (   0.3375000   0.3375000   0.6750000), wk =   0.0090498
        k(   64) = (   0.3187500   0.3187500   0.6375000), wk =   0.0090498
        k(   65) = (   0.3000000   0.3000000   0.6000000), wk =   0.0090498
        k(   66) = (   0.2812500   0.2812500   0.5625000), wk =   0.0090498
        k(   67) = (   0.2625000   0.2625000   0.5250000), wk =   0.0090498
        k(   68) = (   0.2437500   0.2437500   0.4875000), wk =   0.0090498
        k(   69) = (   0.2250000   0.2250000   0.4500000), wk =   0.0090498
        k(   70) = (   0.2062500   0.2062500   0.4125000), wk =   0.0090498
        k(   71) = (   0.1875000   0.1875000   0.3750000), wk =   0.0090498
        k(   72) = (   0.1687500   0.1687500   0.3375000), wk =   0.0090498
        k(   73) = (   0.1500000   0.1500000   0.3000000), wk =   0.0090498
        k(   74) = (   0.1312500   0.1312500   0.2625000), wk =   0.0090498
        k(   75) = (   0.1125000   0.1125000   0.2250000), wk =   0.0090498
        k(   76) = (   0.0937500   0.0937500   0.1875000), wk =   0.0090498
        k(   77) = (   0.0750000   0.0750000   0.1500000), wk =   0.0090498
        k(   78) = (   0.0562500   0.0562500   0.1125000), wk =   0.0090498
        k(   79) = (   0.0375000   0.0375000   0.0750000), wk =   0.0090498
        k(   80) = (   0.0187500   0.0187500   0.0375000), wk =   0.0090498
        k(   81) = (   0.0000000   0.0000000   0.0000000), wk =   0.0090498
        k(   82) = (   0.0250000   0.0250000   0.0250000), wk =   0.0090498
        k(   83) = (   0.0500000   0.0500000   0.0500000), wk =   0.0090498
        k(   84) = (   0.0750000   0.0750000   0.0750000), wk =   0.0090498
        k(   85) = (   0.1000000   0.1000000   0.1000000), wk =   0.0090498
        k(   86) = (   0.1250000   0.1250000   0.1250000), wk =   0.0090498
        k(   87) = (   0.1500000   0.1500000   0.1500000), wk =   0.0090498
        k(   88) = (   0.1750000   0.1750000   0.1750000), wk =   0.0090498
        k(   89) = (   0.2000000   0.2000000   0.2000000), wk =   0.0090498
        k(   90) = (   0.2250000   0.2250000   0.2250000), wk =   0.0090498
        k(   91) = (   0.2500000   0.2500000   0.2500000), wk =   0.0090498
        k(   92) = (   0.2750000   0.2750000   0.2750000), wk =   0.0090498
        k(   93) = (   0.3000000   0.3000000   0.3000000), wk =   0.0090498
        k(   94) = (   0.3250000   0.3250000   0.3250000), wk =   0.0090498
        k(   95) = (   0.3500000   0.3500000   0.3500000), wk =   0.0090498
        k(   96) = (   0.3750000   0.3750000   0.3750000), wk =   0.0090498
        k(   97) = (   0.4000000   0.4000000   0.4000000), wk =   0.0090498
        k(   98) = (   0.4250000   0.4250000   0.4250000), wk =   0.0090498
        k(   99) = (   0.4500000   0.4500000   0.4500000), wk =   0.0090498
        k(  100) = (   0.4750000   0.4750000   0.4750000), wk =   0.0090498
        k(  101) = (   0.5000000   0.5000000   0.5000000), wk =   0.0090498
        k(  102) = (   0.5062500   0.4875000   0.5062500), wk =   0.0090498
        k(  103) = (   0.5125000   0.4750000   0.5125000), wk =   0.0090498
        k(  104) = (   0.5187500   0.4625000   0.5187500), wk =   0.0090498
        k(  105) = (   0.5250000   0.4500000   0.5250000), wk =   0.0090498
        k(  106) = (   0.5312500   0.4375000   0.5312500), wk =   0.0090498
        k(  107) = (   0.5375000   0.4250000   0.5375000), wk =   0.0090498
        k(  108) = (   0.5437500   0.4125000   0.5437500), wk =   0.0090498
        k(  109) = (   0.5500000   0.4000000   0.5500000), wk =   0.0090498
        k(  110) = (   0.5562500   0.3875000   0.5562500), wk =   0.0090498
        k(  111) = (   0.5625000   0.3750000   0.5625000), wk =   0.0090498
        k(  112) = (   0.5687500   0.3625000   0.5687500), wk =   0.0090498
        k(  113) = (   0.5750000   0.3500000   0.5750000), wk =   0.0090498
        k(  114) = (   0.5812500   0.3375000   0.5812500), wk =   0.0090498
        k(  115) = (   0.5875000   0.3250000   0.5875000), wk =   0.0090498
        k(  116) = (   0.5937500   0.3125000   0.5937500), wk =   0.0090498
        k(  117) = (   0.6000000   0.3000000   0.6000000), wk =   0.0090498
        k(  118) = (   0.6062500   0.2875000   0.6062500), wk =   0.0090498
        k(  119) = (   0.6125000   0.2750000   0.6125000), wk =   0.0090498
        k(  120) = (   0.6187500   0.2625000   0.6187500), wk =   0.0090498
        k(  121) = (   0.6250000   0.2500000   0.6250000), wk =   0.0090498
        k(  122) = (   0.6187500   0.2500000   0.6312500), wk =   0.0090498
        k(  123) = (   0.6125000   0.2500000   0.6375000), wk =   0.0090498
        k(  124) = (   0.6062500   0.2500000   0.6437500), wk =   0.0090498
        k(  125) = (   0.6000000   0.2500000   0.6500000), wk =   0.0090498
        k(  126) = (   0.5937500   0.2500000   0.6562500), wk =   0.0090498
        k(  127) = (   0.5875000   0.2500000   0.6625000), wk =   0.0090498
        k(  128) = (   0.5812500   0.2500000   0.6687500), wk =   0.0090498
        k(  129) = (   0.5750000   0.2500000   0.6750000), wk =   0.0090498
        k(  130) = (   0.5687500   0.2500000   0.6812500), wk =   0.0090498
        k(  131) = (   0.5625000   0.2500000   0.6875000), wk =   0.0090498
        k(  132) = (   0.5562500   0.2500000   0.6937500), wk =   0.0090498
        k(  133) = (   0.5500000   0.2500000   0.7000000), wk =   0.0090498
        k(  134) = (   0.5437500   0.2500000   0.7062500), wk =   0.0090498
        k(  135) = (   0.5375000   0.2500000   0.7125000), wk =   0.0090498
        k(  136) = (   0.5312500   0.2500000   0.7187500), wk =   0.0090498
        k(  137) = (   0.5250000   0.2500000   0.7250000), wk =   0.0090498
        k(  138) = (   0.5187500   0.2500000   0.7312500), wk =   0.0090498
        k(  139) = (   0.5125000   0.2500000   0.7375000), wk =   0.0090498
        k(  140) = (   0.5062500   0.2500000   0.7437500), wk =   0.0090498
        k(  141) = (   0.5000000   0.2500000   0.7500000), wk =   0.0090498
        k(  142) = (   0.5000000   0.2625000   0.7375000), wk =   0.0090498
        k(  143) = (   0.5000000   0.2750000   0.7250000), wk =   0.0090498
        k(  144) = (   0.5000000   0.2875000   0.7125000), wk =   0.0090498
        k(  145) = (   0.5000000   0.3000000   0.7000000), wk =   0.0090498
        k(  146) = (   0.5000000   0.3125000   0.6875000), wk =   0.0090498
        k(  147) = (   0.5000000   0.3250000   0.6750000), wk =   0.0090498
        k(  148) = (   0.5000000   0.3375000   0.6625000), wk =   0.0090498
        k(  149) = (   0.5000000   0.3500000   0.6500000), wk =   0.0090498
        k(  150) = (   0.5000000   0.3625000   0.6375000), wk =   0.0090498
        k(  151) = (   0.5000000   0.3750000   0.6250000), wk =   0.0090498
        k(  152) = (   0.5000000   0.3875000   0.6125000), wk =   0.0090498
        k(  153) = (   0.5000000   0.4000000   0.6000000), wk =   0.0090498
        k(  154) = (   0.5000000   0.4125000   0.5875000), wk =   0.0090498
        k(  155) = (   0.5000000   0.4250000   0.5750000), wk =   0.0090498
        k(  156) = (   0.5000000   0.4375000   0.5625000), wk =   0.0090498
        k(  157) = (   0.5000000   0.4500000   0.5500000), wk =   0.0090498
        k(  158) = (   0.5000000   0.4625000   0.5375000), wk =   0.0090498
        k(  159) = (   0.5000000   0.4750000   0.5250000), wk =   0.0090498
        k(  160) = (   0.5000000   0.4875000   0.5125000), wk =   0.0090498
        k(  161) = (   0.5000000   0.5000000   0.5000000), wk =   0.0090498
        k(  162) = (   0.4937500   0.4937500   0.5125000), wk =   0.0090498
        k(  163) = (   0.4875000   0.4875000   0.5250000), wk =   0.0090498
        k(  164) = (   0.4812500   0.4812500   0.5375000), wk =   0.0090498
        k(  165) = (   0.4750000   0.4750000   0.5500000), wk =   0.0090498
        k(  166) = (   0.4687500   0.4687500   0.5625000), wk =   0.0090498
        k(  167) = (   0.4625000   0.4625000   0.5750000), wk =   0.0090498
        k(  168) = (   0.4562500   0.4562500   0.5875000), wk =   0.0090498
        k(  169) = (   0.4500000   0.4500000   0.6000000), wk =   0.0090498
        k(  170) = (   0.4437500   0.4437500   0.6125000), wk =   0.0090498
        k(  171) = (   0.4375000   0.4375000   0.6250000), wk =   0.0090498
        k(  172) = (   0.4312500   0.4312500   0.6375000), wk =   0.0090498
        k(  173) = (   0.4250000   0.4250000   0.6500000), wk =   0.0090498
        k(  174) = (   0.4187500   0.4187500   0.6625000), wk =   0.0090498
        k(  175) = (   0.4125000   0.4125000   0.6750000), wk =   0.0090498
        k(  176) = (   0.4062500   0.4062500   0.6875000), wk =   0.0090498
        k(  177) = (   0.4000000   0.4000000   0.7000000), wk =   0.0090498
        k(  178) = (   0.3937500   0.3937500   0.7125000), wk =   0.0090498
        k(  179) = (   0.3875000   0.3875000   0.7250000), wk =   0.0090498
        k(  180) = (   0.3812500   0.3812500   0.7375000), wk =   0.0090498
        k(  181) = (   0.3750000   0.3750000   0.7500000), wk =   0.0090498
        k(  182) = (   0.3875000   0.3687500   0.7437500), wk =   0.0090498
        k(  183) = (   0.4000000   0.3625000   0.7375000), wk =   0.0090498
        k(  184) = (   0.4125000   0.3562500   0.7312500), wk =   0.0090498
        k(  185) = (   0.4250000   0.3500000   0.7250000), wk =   0.0090498
        k(  186) = (   0.4375000   0.3437500   0.7187500), wk =   0.0090498
        k(  187) = (   0.4500000   0.3375000   0.7125000), wk =   0.0090498
        k(  188) = (   0.4625000   0.3312500   0.7062500), wk =   0.0090498
        k(  189) = (   0.4750000   0.3250000   0.7000000), wk =   0.0090498
        k(  190) = (   0.4875000   0.3187500   0.6937500), wk =   0.0090498
        k(  191) = (   0.5000000   0.3125000   0.6875000), wk =   0.0090498
        k(  192) = (   0.5125000   0.3062500   0.6812500), wk =   0.0090498
        k(  193) = (   0.5250000   0.3000000   0.6750000), wk =   0.0090498
        k(  194) = (   0.5375000   0.2937500   0.6687500), wk =   0.0090498
        k(  195) = (   0.5500000   0.2875000   0.6625000), wk =   0.0090498
        k(  196) = (   0.5625000   0.2812500   0.6562500), wk =   0.0090498
        k(  197) = (   0.5750000   0.2750000   0.6500000), wk =   0.0090498
        k(  198) = (   0.5875000   0.2687500   0.6437500), wk =   0.0090498
        k(  199) = (   0.6000000   0.2625000   0.6375000), wk =   0.0090498
        k(  200) = (   0.6125000   0.2562500   0.6312500), wk =   0.0090498
        k(  201) = (   0.6250000   0.2500000   0.6250000), wk =   0.0090498
        k(  202) = (   0.6187500   0.2375000   0.6187500), wk =   0.0090498
        k(  203) = (   0.6125000   0.2250000   0.6125000), wk =   0.0090498
        k(  204) = (   0.6062500   0.2125000   0.6062500), wk =   0.0090498
        k(  205) = (   0.6000000   0.2000000   0.6000000), wk =   0.0090498
        k(  206) = (   0.5937500   0.1875000   0.5937500), wk =   0.0090498
        k(  207) = (   0.5875000   0.1750000   0.5875000), wk =   0.0090498
        k(  208) = (   0.5812500   0.1625000   0.5812500), wk =   0.0090498
        k(  209) = (   0.5750000   0.1500000   0.5750000), wk =   0.0090498
        k(  210) = (   0.5687500   0.1375000   0.5687500), wk =   0.0090498
        k(  211) = (   0.5625000   0.1250000   0.5625000), wk =   0.0090498
        k(  212) = (   0.5562500   0.1125000   0.5562500), wk =   0.0090498
        k(  213) = (   0.5500000   0.1000000   0.5500000), wk =   0.0090498
        k(  214) = (   0.5437500   0.0875000   0.5437500), wk =   0.0090498
        k(  215) = (   0.5375000   0.0750000   0.5375000), wk =   0.0090498
        k(  216) = (   0.5312500   0.0625000   0.5312500), wk =   0.0090498
        k(  217) = (   0.5250000   0.0500000   0.5250000), wk =   0.0090498
        k(  218) = (   0.5187500   0.0375000   0.5187500), wk =   0.0090498
        k(  219) = (   0.5125000   0.0250000   0.5125000), wk =   0.0090498
        k(  220) = (   0.5062500   0.0125000   0.5062500), wk =   0.0090498
        k(  221) = (   0.5000000   0.0000000   0.5000000), wk =   0.0090498

                       cryst. coord.
        k(    1) = (   0.0000000   0.0000000   0.0000000), wk =   0.0090498
        k(    2) = (   0.0250000   0.0000000   0.0250000), wk =   0.0090498
        k(    3) = (   0.0500000   0.0000000   0.0500000), wk =   0.0090498
        k(    4) = (   0.0750000   0.0000000   0.0750000), wk =   0.0090498
        k(    5) = (   0.1000000   0.0000000   0.1000000), wk =   0.0090498
        k(    6) = (   0.1250000   0.0000000   0.1250000), wk =   0.0090498
        k(    7) = (   0.1500000   0.0000000   0.1500000), wk =   0.0090498
        k(    8) = (   0.1750000   0.0000000   0.1750000), wk =   0.0090498
        k(    9) = (   0.2000000   0.0000000   0.2000000), wk =   0.0090498
        k(   10) = (   0.2250000   0.0000000   0.2250000), wk =   0.0090498
        k(   11) = (   0.2500000   0.0000000   0.2500000), wk =   0.0090498
        k(   12) = (   0.2750000   0.0000000   0.2750000), wk =   0.0090498
        k(   13) = (   0.3000000   0.0000000   0.3000000), wk =   0.0090498
        k(   14) = (   0.3250000   0.0000000   0.3250000), wk =   0.0090498
        k(   15) = (   0.3500000   0.0000000   0.3500000), wk =   0.0090498
        k(   16) = (   0.3750000   0.0000000   0.3750000), wk =   0.0090498
        k(   17) = (   0.4000000   0.0000000   0.4000000), wk =   0.0090498
        k(   18) = (   0.4250000   0.0000000   0.4250000), wk =   0.0090498
        k(   19) = (   0.4500000   0.0000000   0.4500000), wk =   0.0090498
        k(   20) = (   0.4750000   0.0000000   0.4750000), wk =   0.0090498
        k(   21) = (   0.5000000   0.0000000   0.5000000), wk =   0.0090498
        k(   22) = (   0.5000000   0.0125000   0.5125000), wk =   0.0090498
        k(   23) = (   0.5000000   0.0250000   0.5250000), wk =   0.0090498
        k(   24) = (   0.5000000   0.0375000   0.5375000), wk =   0.0090498
        k(   25) = (   0.5000000   0.0500000   0.5500000), wk =   0.0090498
        k(   26) = (   0.5000000   0.0625000   0.5625000), wk =   0.0090498
        k(   27) = (   0.5000000   0.0750000   0.5750000), wk =   0.0090498
        k(   28) = (   0.5000000   0.0875000   0.5875000), wk =   0.0090498
        k(   29) = (   0.5000000   0.1000000   0.6000000), wk =   0.0090498
        k(   30) = (   0.5000000   0.1125000   0.6125000), wk =   0.0090498
        k(   31) = (   0.5000000   0.1250000   0.6250000), wk =   0.0090498
        k(   32) = (   0.5000000   0.1375000   0.6375000), wk =   0.0090498
        k(   33) = (   0.5000000   0.1500000   0.6500000), wk =   0.0090498
        k(   34) = (   0.5000000   0.1625000   0.6625000), wk =   0.0090498
        k(   35) = (   0.5000000   0.1750000   0.6750000), wk =   0.0090498
        k(   36) = (   0.5000000   0.1875000   0.6875000), wk =   0.0090498
        k(   37) = (   0.5000000   0.2000000   0.7000000), wk =   0.0090498
        k(   38) = (   0.5000000   0.2125000   0.7125000), wk =   0.0090498
        k(   39) = (   0.5000000   0.2250000   0.7250000), wk =   0.0090498
        k(   40) = (   0.5000000   0.2375000   0.7375000), wk =   0.0090498
        k(   41) = (   0.5000000   0.2500000   0.7500000), wk =   0.0090498
        k(   42) = (   0.4937500   0.2562500   0.7500000), wk =   0.0090498
        k(   43) = (   0.4875000   0.2625000   0.7500000), wk =   0.0090498
        k(   44) = (   0.4812500   0.2687500   0.7500000), wk =   0.0090498
        k(   45) = (   0.4750000   0.2750000   0.7500000), wk =   0.0090498
        k(   46) = (   0.4687500   0.2812500   0.7500000), wk =   0.0090498
        k(   47) = (   0.4625000   0.2875000   0.7500000), wk =   0.0090498
        k(   48) = (   0.4562500   0.2937500   0.7500000), wk =   0.0090498
        k(   49) = (   0.4500000   0.3000000   0.7500000), wk =   0.0090498
        k(   50) = (   0.4437500   0.3062500   0.7500000), wk =   0.0090498
        k(   51) = (   0.4375000   0.3125000   0.7500000), wk =   0.0090498
        k(   52) = (   0.4312500   0.3187500   0.7500000), wk =   0.0090498
        k(   53) = (   0.4250000   0.3250000   0.7500000), wk =   0.0090498
        k(   54) = (   0.4187500   0.3312500   0.7500000), wk =   0.0090498
        k(   55) = (   0.4125000   0.3375000   0.7500000), wk =   0.0090498
        k(   56) = (   0.4062500   0.3437500   0.7500000), wk =   0.0090498
        k(   57) = (   0.4000000   0.3500000   0.7500000), wk =   0.0090498
        k(   58) = (   0.3937500   0.3562500   0.7500000), wk =   0.0090498
        k(   59) = (   0.3875000   0.3625000   0.7500000), wk =   0.0090498
        k(   60) = (   0.3812500   0.3687500   0.7500000), wk =   0.0090498
        k(   61) = (   0.3750000   0.3750000   0.7500000), wk =   0.0090498
        k(   62) = (   0.3562500   0.3562500   0.7125000), wk =   0.0090498
        k(   63) = (   0.3375000   0.3375000   0.6750000), wk =   0.0090498
        k(   64) = (   0.3187500   0.3187500   0.6375000), wk =   0.0090498
        k(   65) = (   0.3000000   0.3000000   0.6000000), wk =   0.0090498
        k(   66) = (   0.2812500   0.2812500   0.5625000), wk =   0.0090498
        k(   67) = (   0.2625000   0.2625000   0.5250000), wk =   0.0090498
        k(   68) = (   0.2437500   0.2437500   0.4875000), wk =   0.0090498
        k(   69) = (   0.2250000   0.2250000   0.4500000), wk =   0.0090498
        k(   70) = (   0.2062500   0.2062500   0.4125000), wk =   0.0090498
        k(   71) = (   0.1875000   0.1875000   0.3750000), wk =   0.0090498
        k(   72) = (   0.1687500   0.1687500   0.3375000), wk =   0.0090498
        k(   73) = (   0.1500000   0.1500000   0.3000000), wk =   0.0090498
        k(   74) = (   0.1312500   0.1312500   0.2625000), wk =   0.0090498
        k(   75) = (   0.1125000   0.1125000   0.2250000), wk =   0.0090498
        k(   76) = (   0.0937500   0.0937500   0.1875000), wk =   0.0090498
        k(   77) = (   0.0750000   0.0750000   0.1500000), wk =   0.0090498
        k(   78) = (   0.0562500   0.0562500   0.1125000), wk =   0.0090498
        k(   79) = (   0.0375000   0.0375000   0.0750000), wk =   0.0090498
        k(   80) = (   0.0187500   0.0187500   0.0375000), wk =   0.0090498
        k(   81) = (   0.0000000   0.0000000   0.0000000), wk =   0.0090498
        k(   82) = (   0.0250000   0.0250000   0.0250000), wk =   0.0090498
        k(   83) = (   0.0500000   0.0500000   0.0500000), wk =   0.0090498
        k(   84) = (   0.0750000   0.0750000   0.0750000), wk =   0.0090498
        k(   85) = (   0.1000000   0.1000000   0.1000000), wk =   0.0090498
        k(   86) = (   0.1250000   0.1250000   0.1250000), wk =   0.0090498
        k(   87) = (   0.1500000   0.1500000   0.1500000), wk =   0.0090498
        k(   88) = (   0.1750000   0.1750000   0.1750000), wk =   0.0090498
        k(   89) = (   0.2000000   0.2000000   0.2000000), wk =   0.0090498
        k(   90) = (   0.2250000   0.2250000   0.2250000), wk =   0.0090498
        k(   91) = (   0.2500000   0.2500000   0.2500000), wk =   0.0090498
        k(   92) = (   0.2750000   0.2750000   0.2750000), wk =   0.0090498
        k(   93) = (   0.3000000   0.3000000   0.3000000), wk =   0.0090498
        k(   94) = (   0.3250000   0.3250000   0.3250000), wk =   0.0090498
        k(   95) = (   0.3500000   0.3500000   0.3500000), wk =   0.0090498
        k(   96) = (   0.3750000   0.3750000   0.3750000), wk =   0.0090498
        k(   97) = (   0.4000000   0.4000000   0.4000000), wk =   0.0090498
        k(   98) = (   0.4250000   0.4250000   0.4250000), wk =   0.0090498
        k(   99) = (   0.4500000   0.4500000   0.4500000), wk =   0.0090498
        k(  100) = (   0.4750000   0.4750000   0.4750000), wk =   0.0090498
        k(  101) = (   0.5000000   0.5000000   0.5000000), wk =   0.0090498
        k(  102) = (   0.5062500   0.4875000   0.5062500), wk =   0.0090498
        k(  103) = (   0.5125000   0.4750000   0.5125000), wk =   0.0090498
        k(  104) = (   0.5187500   0.4625000   0.5187500), wk =   0.0090498
        k(  105) = (   0.5250000   0.4500000   0.5250000), wk =   0.0090498
        k(  106) = (   0.5312500   0.4375000   0.5312500), wk =   0.0090498
        k(  107) = (   0.5375000   0.4250000   0.5375000), wk =   0.0090498
        k(  108) = (   0.5437500   0.4125000   0.5437500), wk =   0.0090498
        k(  109) = (   0.5500000   0.4000000   0.5500000), wk =   0.0090498
        k(  110) = (   0.5562500   0.3875000   0.5562500), wk =   0.0090498
        k(  111) = (   0.5625000   0.3750000   0.5625000), wk =   0.0090498
        k(  112) = (   0.5687500   0.3625000   0.5687500), wk =   0.0090498
        k(  113) = (   0.5750000   0.3500000   0.5750000), wk =   0.0090498
        k(  114) = (   0.5812500   0.3375000   0.5812500), wk =   0.0090498
        k(  115) = (   0.5875000   0.3250000   0.5875000), wk =   0.0090498
        k(  116) = (   0.5937500   0.3125000   0.5937500), wk =   0.0090498
        k(  117) = (   0.6000000   0.3000000   0.6000000), wk =   0.0090498
        k(  118) = (   0.6062500   0.2875000   0.6062500), wk =   0.0090498
        k(  119) = (   0.6125000   0.2750000   0.6125000), wk =   0.0090498
        k(  120) = (   0.6187500   0.2625000   0.6187500), wk =   0.0090498
        k(  121) = (   0.6250000   0.2500000   0.6250000), wk =   0.0090498
        k(  122) = (   0.6187500   0.2500000   0.6312500), wk =   0.0090498
        k(  123) = (   0.6125000   0.2500000   0.6375000), wk =   0.0090498
        k(  124) = (   0.6062500   0.2500000   0.6437500), wk =   0.0090498
        k(  125) = (   0.6000000   0.2500000   0.6500000), wk =   0.0090498
        k(  126) = (   0.5937500   0.2500000   0.6562500), wk =   0.0090498
        k(  127) = (   0.5875000   0.2500000   0.6625000), wk =   0.0090498
        k(  128) = (   0.5812500   0.2500000   0.6687500), wk =   0.0090498
        k(  129) = (   0.5750000   0.2500000   0.6750000), wk =   0.0090498
        k(  130) = (   0.5687500   0.2500000   0.6812500), wk =   0.0090498
        k(  131) = (   0.5625000   0.2500000   0.6875000), wk =   0.0090498
        k(  132) = (   0.5562500   0.2500000   0.6937500), wk =   0.0090498
        k(  133) = (   0.5500000   0.2500000   0.7000000), wk =   0.0090498
        k(  134) = (   0.5437500   0.2500000   0.7062500), wk =   0.0090498
        k(  135) = (   0.5375000   0.2500000   0.7125000), wk =   0.0090498
        k(  136) = (   0.5312500   0.2500000   0.7187500), wk =   0.0090498
        k(  137) = (   0.5250000   0.2500000   0.7250000), wk =   0.0090498
        k(  138) = (   0.5187500   0.2500000   0.7312500), wk =   0.0090498
        k(  139) = (   0.5125000   0.2500000   0.7375000), wk =   0.0090498
        k(  140) = (   0.5062500   0.2500000   0.7437500), wk =   0.0090498
        k(  141) = (   0.5000000   0.2500000   0.7500000), wk =   0.0090498
        k(  142) = (   0.5000000   0.2625000   0.7375000), wk =   0.0090498
        k(  143) = (   0.5000000   0.2750000   0.7250000), wk =   0.0090498
        k(  144) = (   0.5000000   0.2875000   0.7125000), wk =   0.0090498
        k(  145) = (   0.5000000   0.3000000   0.7000000), wk =   0.0090498
        k(  146) = (   0.5000000   0.3125000   0.6875000), wk =   0.0090498
        k(  147) = (   0.5000000   0.3250000   0.6750000), wk =   0.0090498
        k(  148) = (   0.5000000   0.3375000   0.6625000), wk =   0.0090498
        k(  149) = (   0.5000000   0.3500000   0.6500000), wk =   0.0090498
        k(  150) = (   0.5000000   0.3625000   0.6375000), wk =   0.0090498
        k(  151) = (   0.5000000   0.3750000   0.6250000), wk =   0.0090498
        k(  152) = (   0.5000000   0.3875000   0.6125000), wk =   0.0090498
        k(  153) = (   0.5000000   0.4000000   0.6000000), wk =   0.0090498
        k(  154) = (   0.5000000   0.4125000   0.5875000), wk =   0.0090498
        k(  155) = (   0.5000000   0.4250000   0.5750000), wk =   0.0090498
        k(  156) = (   0.5000000   0.4375000   0.5625000), wk =   0.0090498
        k(  157) = (   0.5000000   0.4500000   0.5500000), wk =   0.0090498
        k(  158) = (   0.5000000   0.4625000   0.5375000), wk =   0.0090498
        k(  159) = (   0.5000000   0.4750000   0.5250000), wk =   0.0090498
        k(  160) = (   0.5000000   0.4875000   0.5125000), wk =   0.0090498
        k(  161) = (   0.5000000   0.5000000   0.5000000), wk =   0.0090498
        k(  162) = (   0.4937500   0.4937500   0.5125000), wk =   0.0090498
        k(  163) = (   0.4875000   0.4875000   0.5250000), wk =   0.0090498
        k(  164) = (   0.4812500   0.4812500   0.5375000), wk =   0.0090498
        k(  165) = (   0.4750000   0.4750000   0.5500000), wk =   0.0090498
        k(  166) = (   0.4687500   0.4687500   0.5625000), wk =   0.0090498
        k(  167) = (   0.4625000   0.4625000   0.5750000), wk =   0.0090498
        k(  168) = (   0.4562500   0.4562500   0.5875000), wk =   0.0090498
        k(  169) = (   0.4500000   0.4500000   0.6000000), wk =   0.0090498
        k(  170) = (   0.4437500   0.4437500   0.6125000), wk =   0.0090498
        k(  171) = (   0.4375000   0.4375000   0.6250000), wk =   0.0090498
        k(  172) = (   0.4312500   0.4312500   0.6375000), wk =   0.0090498
        k(  173) = (   0.4250000   0.4250000   0.6500000), wk =   0.0090498
        k(  174) = (   0.4187500   0.4187500   0.6625000), wk =   0.0090498
        k(  175) = (   0.4125000   0.4125000   0.6750000), wk =   0.0090498
        k(  176) = (   0.4062500   0.4062500   0.6875000), wk =   0.0090498
        k(  177) = (   0.4000000   0.4000000   0.7000000), wk =   0.0090498
        k(  178) = (   0.3937500   0.3937500   0.7125000), wk =   0.0090498
        k(  179) = (   0.3875000   0.3875000   0.7250000), wk =   0.0090498
        k(  180) = (   0.3812500   0.3812500   0.7375000), wk =   0.0090498
        k(  181) = (   0.3750000   0.3750000   0.7500000), wk =   0.0090498
        k(  182) = (   0.3875000   0.3687500   0.7437500), wk =   0.0090498
        k(  183) = (   0.4000000   0.3625000   0.7375000), wk =   0.0090498
        k(  184) = (   0.4125000   0.3562500   0.7312500), wk =   0.0090498
        k(  185) = (   0.4250000   0.3500000   0.7250000), wk =   0.0090498
        k(  186) = (   0.4375000   0.3437500   0.7187500), wk =   0.0090498
        k(  187) = (   0.4500000   0.3375000   0.7125000), wk =   0.0090498
        k(  188) = (   0.4625000   0.3312500   0.7062500), wk =   0.0090498
        k(  189) = (   0.4750000   0.3250000   0.7000000), wk =   0.0090498
        k(  190) = (   0.4875000   0.3187500   0.6937500), wk =   0.0090498
        k(  191) = (   0.5000000   0.3125000   0.6875000), wk =   0.0090498
        k(  192) = (   0.5125000   0.3062500   0.6812500), wk =   0.0090498
        k(  193) = (   0.5250000   0.3000000   0.6750000), wk =   0.0090498
        k(  194) = (   0.5375000   0.2937500   0.6687500), wk =   0.0090498
        k(  195) = (   0.5500000   0.2875000   0.6625000), wk =   0.0090498
        k(  196) = (   0.5625000   0.2812500   0.6562500), wk =   0.0090498
        k(  197) = (   0.5750000   0.2750000   0.6500000), wk =   0.0090498
        k(  198) = (   0.5875000   0.2687500   0.6437500), wk =   0.0090498
        k(  199) = (   0.6000000   0.2625000   0.6375000), wk =   0.0090498
        k(  200) = (   0.6125000   0.2562500   0.6312500), wk =   0.0090498
        k(  201) = (   0.6250000   0.2500000   0.6250000), wk =   0.0090498
        k(  202) = (   0.6187500   0.2375000   0.6187500), wk =   0.0090498
        k(  203) = (   0.6125000   0.2250000   0.6125000), wk =   0.0090498
        k(  204) = (   0.6062500   0.2125000   0.6062500), wk =   0.0090498
        k(  205) = (   0.6000000   0.2000000   0.6000000), wk =   0.0090498
        k(  206) = (   0.5937500   0.1875000   0.5937500), wk =   0.0090498
        k(  207) = (   0.5875000   0.1750000   0.5875000), wk =   0.0090498
        k(  208) = (   0.5812500   0.1625000   0.5812500), wk =   0.0090498
        k(  209) = (   0.5750000   0.1500000   0.5750000), wk =   0.0090498
        k(  210) = (   0.5687500   0.1375000   0.5687500), wk =   0.0090498
        k(  211) = (   0.5625000   0.1250000   0.5625000), wk =   0.0090498
        k(  212) = (   0.5562500   0.1125000   0.5562500), wk =   0.0090498
        k(  213) = (   0.5500000   0.1000000   0.5500000), wk =   0.0090498
        k(  214) = (   0.5437500   0.0875000   0.5437500), wk =   0.0090498
        k(  215) = (   0.5375000   0.0750000   0.5375000), wk =   0.0090498
        k(  216) = (   0.5312500   0.0625000   0.5312500), wk =   0.0090498
        k(  217) = (   0.5250000   0.0500000   0.5250000), wk =   0.0090498
        k(  218) = (   0.5187500   0.0375000   0.5187500), wk =   0.0090498
        k(  219) = (   0.5125000   0.0250000   0.5125000), wk =   0.0090498
        k(  220) = (   0.5062500   0.0125000   0.5062500), wk =   0.0090498
        k(  221) = (   0.5000000   0.0000000   0.5000000), wk =   0.0090498

     Dense  grid:    13133 G-vectors     FFT dimensions: (  30,  30,  30)

     Dynamical RAM for                 wfc:       0.03 MB

     Dynamical RAM for     wfc (w. buffer):       0.03 MB

     Dynamical RAM for           str. fact:       0.01 MB

     Dynamical RAM for           local pot:       0.00 MB

     Dynamical RAM for          nlocal pot:       0.25 MB

     Dynamical RAM for                qrad:       0.72 MB

     Dynamical RAM for          rho,v,vnew:       0.10 MB

     Dynamical RAM for           G-vectors:       0.06 MB

     Dynamical RAM for          h,s,v(r/c):       0.00 MB

     Dynamical RAM for          <psi|beta>:       0.04 MB

     Dynamical RAM for                 psi:       0.06 MB

     Dynamical RAM for                hpsi:       0.06 MB

     Dynamical RAM for                spsi:       0.06 MB

     Dynamical RAM for      wfcinit/wfcrot:       0.14 MB

     Dynamical RAM for           addusdens:       2.78 MB

     Estimated static dynamical RAM per process >       1.31 MB

     Estimated max dynamical RAM per process >       4.09 MB

     Estimated total dynamical RAM >      57.27 MB

     Check: negative core charge=   -0.000010

     The potential is recalculated from file :
     ./outputs/Si.save/charge-density

     Starting wfcs are   32 randomized atomic wfcs

     Band Structure Calculation
     Davidson diagonalization with overlap

     Computing kpt #:     1  of   221
     total cpu time spent up to now is        0.4 secs

     Computing kpt #:     2  of   221
     total cpu time spent up to now is        0.5 secs

     Computing kpt #:     3  of   221
     total cpu time spent up to now is        0.7 secs

     Computing kpt #:     4  of   221
     total cpu time spent up to now is        0.8 secs

     Computing kpt #:     5  of   221
     total cpu time spent up to now is        0.9 secs

     Computing kpt #:     6  of   221
     total cpu time spent up to now is        1.0 secs

     Computing kpt #:     7  of   221
     total cpu time spent up to now is        1.1 secs

     Computing kpt #:     8  of   221
     total cpu time spent up to now is        1.2 secs

     Computing kpt #:     9  of   221
     total cpu time spent up to now is        1.3 secs

     Computing kpt #:    10  of   221
     total cpu time spent up to now is        1.4 secs

     Computing kpt #:    11  of   221
     total cpu time spent up to now is        1.5 secs

     Computing kpt #:    12  of   221
     total cpu time spent up to now is        1.5 secs

     Computing kpt #:    13  of   221
     total cpu time spent up to now is        1.6 secs

     Computing kpt #:    14  of   221
     total cpu time spent up to now is        1.7 secs

     Computing kpt #:    15  of   221
     total cpu time spent up to now is        1.8 secs

     Computing kpt #:    16  of   221
     total cpu time spent up to now is        1.8 secs

     Computing kpt #:    17  of   221
     total cpu time spent up to now is        1.9 secs

     Computing kpt #:    18  of   221
     total cpu time spent up to now is        2.0 secs

     Computing kpt #:    19  of   221
     total cpu time spent up to now is        2.0 secs

     Computing kpt #:    20  of   221
     total cpu time spent up to now is        2.1 secs

     Computing kpt #:    21  of   221
     total cpu time spent up to now is        2.1 secs

     Computing kpt #:    22  of   221
     total cpu time spent up to now is        2.2 secs

     Computing kpt #:    23  of   221
     total cpu time spent up to now is        2.3 secs

     Computing kpt #:    24  of   221
     total cpu time spent up to now is        2.3 secs

     Computing kpt #:    25  of   221
     total cpu time spent up to now is        2.4 secs

     Computing kpt #:    26  of   221
     total cpu time spent up to now is        2.5 secs

     Computing kpt #:    27  of   221
     total cpu time spent up to now is        2.6 secs

     Computing kpt #:    28  of   221
     total cpu time spent up to now is        2.6 secs

     Computing kpt #:    29  of   221
     total cpu time spent up to now is        2.7 secs

     Computing kpt #:    30  of   221
     total cpu time spent up to now is        2.8 secs

     Computing kpt #:    31  of   221
     total cpu time spent up to now is        2.8 secs

     Computing kpt #:    32  of   221
     total cpu time spent up to now is        2.9 secs

     Computing kpt #:    33  of   221
     total cpu time spent up to now is        3.0 secs

     Computing kpt #:    34  of   221
     total cpu time spent up to now is        3.1 secs

     Computing kpt #:    35  of   221
     total cpu time spent up to now is        3.1 secs

     Computing kpt #:    36  of   221
     total cpu time spent up to now is        3.2 secs

     Computing kpt #:    37  of   221
     total cpu time spent up to now is        3.3 secs

     Computing kpt #:    38  of   221
     total cpu time spent up to now is        3.4 secs

     Computing kpt #:    39  of   221
     total cpu time spent up to now is        3.6 secs

     Computing kpt #:    40  of   221
     total cpu time spent up to now is        3.7 secs

     Computing kpt #:    41  of   221
     total cpu time spent up to now is        3.8 secs

     Computing kpt #:    42  of   221
     total cpu time spent up to now is        3.9 secs

     Computing kpt #:    43  of   221
     total cpu time spent up to now is        4.0 secs

     Computing kpt #:    44  of   221
     total cpu time spent up to now is        4.1 secs

     Computing kpt #:    45  of   221
     total cpu time spent up to now is        4.2 secs

     Computing kpt #:    46  of   221
     total cpu time spent up to now is        4.3 secs

     Computing kpt #:    47  of   221
     total cpu time spent up to now is        4.4 secs

     Computing kpt #:    48  of   221
     total cpu time spent up to now is        4.4 secs

     Computing kpt #:    49  of   221
     total cpu time spent up to now is        4.5 secs

     Computing kpt #:    50  of   221
     total cpu time spent up to now is        4.6 secs

     Computing kpt #:    51  of   221
     total cpu time spent up to now is        4.7 secs

     Computing kpt #:    52  of   221
     total cpu time spent up to now is        4.7 secs

     Computing kpt #:    53  of   221
     total cpu time spent up to now is        4.8 secs

     Computing kpt #:    54  of   221
     total cpu time spent up to now is        4.9 secs

     Computing kpt #:    55  of   221
     total cpu time spent up to now is        5.0 secs

     Computing kpt #:    56  of   221
     total cpu time spent up to now is        5.1 secs

     Computing kpt #:    57  of   221
     total cpu time spent up to now is        5.1 secs

     Computing kpt #:    58  of   221
     total cpu time spent up to now is        5.2 secs

     Computing kpt #:    59  of   221
     total cpu time spent up to now is        5.3 secs

     Computing kpt #:    60  of   221
     total cpu time spent up to now is        5.4 secs

     Computing kpt #:    61  of   221
     total cpu time spent up to now is        5.5 secs

     Computing kpt #:    62  of   221
     total cpu time spent up to now is        5.5 secs

     Computing kpt #:    63  of   221
     total cpu time spent up to now is        5.6 secs

     Computing kpt #:    64  of   221
     total cpu time spent up to now is        5.7 secs

     Computing kpt #:    65  of   221
     total cpu time spent up to now is        5.8 secs

     Computing kpt #:    66  of   221
     total cpu time spent up to now is        5.9 secs

     Computing kpt #:    67  of   221
     total cpu time spent up to now is        6.0 secs

     Computing kpt #:    68  of   221
     total cpu time spent up to now is        6.0 secs

     Computing kpt #:    69  of   221
     total cpu time spent up to now is        6.1 secs

     Computing kpt #:    70  of   221
     total cpu time spent up to now is        6.2 secs

     Computing kpt #:    71  of   221
     total cpu time spent up to now is        6.3 secs

     Computing kpt #:    72  of   221
     total cpu time spent up to now is        6.4 secs

     Computing kpt #:    73  of   221
     total cpu time spent up to now is        6.4 secs

     Computing kpt #:    74  of   221
     total cpu time spent up to now is        6.5 secs

     Computing kpt #:    75  of   221
     total cpu time spent up to now is        6.6 secs

     Computing kpt #:    76  of   221
     total cpu time spent up to now is        6.7 secs

     Computing kpt #:    77  of   221
     total cpu time spent up to now is        6.8 secs

     Computing kpt #:    78  of   221
     total cpu time spent up to now is        6.9 secs

     Computing kpt #:    79  of   221
     total cpu time spent up to now is        7.0 secs

     Computing kpt #:    80  of   221
     total cpu time spent up to now is        7.2 secs

     Computing kpt #:    81  of   221
     total cpu time spent up to now is        7.3 secs

     Computing kpt #:    82  of   221
     total cpu time spent up to now is        7.6 secs

     Computing kpt #:    83  of   221
     total cpu time spent up to now is        7.7 secs

     Computing kpt #:    84  of   221
     total cpu time spent up to now is        7.8 secs

     Computing kpt #:    85  of   221
     total cpu time spent up to now is        8.0 secs

     Computing kpt #:    86  of   221
     total cpu time spent up to now is        8.1 secs

     Computing kpt #:    87  of   221
     total cpu time spent up to now is        8.3 secs

     Computing kpt #:    88  of   221
     total cpu time spent up to now is        8.5 secs

     Computing kpt #:    89  of   221
     total cpu time spent up to now is        8.7 secs

     Computing kpt #:    90  of   221
     total cpu time spent up to now is        8.9 secs

     Computing kpt #:    91  of   221
     total cpu time spent up to now is        9.2 secs

     Computing kpt #:    92  of   221
     total cpu time spent up to now is       10.1 secs

     Computing kpt #:    93  of   221
     total cpu time spent up to now is       10.1 secs

     Computing kpt #:    94  of   221
     total cpu time spent up to now is       10.2 secs

     Computing kpt #:    95  of   221
     total cpu time spent up to now is       10.3 secs

     Computing kpt #:    96  of   221
     total cpu time spent up to now is       10.5 secs

     Computing kpt #:    97  of   221
     total cpu time spent up to now is       10.5 secs

     Computing kpt #:    98  of   221
     total cpu time spent up to now is       10.6 secs

     Computing kpt #:    99  of   221
     total cpu time spent up to now is       10.7 secs

     Computing kpt #:   100  of   221
     total cpu time spent up to now is       10.8 secs

     Computing kpt #:   101  of   221
     total cpu time spent up to now is       10.9 secs

     Computing kpt #:   102  of   221
     total cpu time spent up to now is       11.0 secs

     Computing kpt #:   103  of   221
     total cpu time spent up to now is       11.1 secs

     Computing kpt #:   104  of   221
     total cpu time spent up to now is       11.2 secs

     Computing kpt #:   105  of   221
     total cpu time spent up to now is       11.2 secs

     Computing kpt #:   106  of   221
     total cpu time spent up to now is       11.3 secs

     Computing kpt #:   107  of   221
     total cpu time spent up to now is       11.4 secs

     Computing kpt #:   108  of   221
     total cpu time spent up to now is       11.5 secs

     Computing kpt #:   109  of   221
     total cpu time spent up to now is       11.6 secs

     Computing kpt #:   110  of   221
     total cpu time spent up to now is       11.7 secs

     Computing kpt #:   111  of   221
     total cpu time spent up to now is       11.8 secs

     Computing kpt #:   112  of   221
     total cpu time spent up to now is       11.8 secs

     Computing kpt #:   113  of   221
     total cpu time spent up to now is       11.9 secs

     Computing kpt #:   114  of   221
     total cpu time spent up to now is       12.0 secs

     Computing kpt #:   115  of   221
     total cpu time spent up to now is       12.1 secs

     Computing kpt #:   116  of   221
     total cpu time spent up to now is       12.2 secs

     Computing kpt #:   117  of   221
     total cpu time spent up to now is       12.3 secs

     Computing kpt #:   118  of   221
     total cpu time spent up to now is       12.4 secs

     Computing kpt #:   119  of   221
     total cpu time spent up to now is       12.4 secs

     Computing kpt #:   120  of   221
     total cpu time spent up to now is       12.5 secs

     Computing kpt #:   121  of   221
     total cpu time spent up to now is       12.6 secs

     Computing kpt #:   122  of   221
     total cpu time spent up to now is       12.7 secs

     Computing kpt #:   123  of   221
     total cpu time spent up to now is       12.8 secs

     Computing kpt #:   124  of   221
     total cpu time spent up to now is       12.9 secs

     Computing kpt #:   125  of   221
     total cpu time spent up to now is       12.9 secs

     Computing kpt #:   126  of   221
     total cpu time spent up to now is       13.0 secs

     Computing kpt #:   127  of   221
     total cpu time spent up to now is       13.1 secs

     Computing kpt #:   128  of   221
     total cpu time spent up to now is       13.2 secs

     Computing kpt #:   129  of   221
     total cpu time spent up to now is       13.3 secs

     Computing kpt #:   130  of   221
     total cpu time spent up to now is       13.3 secs

     Computing kpt #:   131  of   221
     total cpu time spent up to now is       13.4 secs

     Computing kpt #:   132  of   221
     total cpu time spent up to now is       13.5 secs

     Computing kpt #:   133  of   221
     total cpu time spent up to now is       13.6 secs

     Computing kpt #:   134  of   221
     total cpu time spent up to now is       13.7 secs

     Computing kpt #:   135  of   221
     total cpu time spent up to now is       13.7 secs

     Computing kpt #:   136  of   221
     total cpu time spent up to now is       13.8 secs

     Computing kpt #:   137  of   221
     total cpu time spent up to now is       14.0 secs

     Computing kpt #:   138  of   221
     total cpu time spent up to now is       14.1 secs

     Computing kpt #:   139  of   221
     total cpu time spent up to now is       14.2 secs

     Computing kpt #:   140  of   221
     total cpu time spent up to now is       14.3 secs

     Computing kpt #:   141  of   221
     total cpu time spent up to now is       14.4 secs

     Computing kpt #:   142  of   221
     total cpu time spent up to now is       14.4 secs

     Computing kpt #:   143  of   221
     total cpu time spent up to now is       14.5 secs

     Computing kpt #:   144  of   221
     total cpu time spent up to now is       14.6 secs

     Computing kpt #:   145  of   221
     total cpu time spent up to now is       14.7 secs

     Computing kpt #:   146  of   221
     total cpu time spent up to now is       14.8 secs

     Computing kpt #:   147  of   221
     total cpu time spent up to now is       14.8 secs

     Computing kpt #:   148  of   221
     total cpu time spent up to now is       14.9 secs

     Computing kpt #:   149  of   221
     total cpu time spent up to now is       15.0 secs

     Computing kpt #:   150  of   221
     total cpu time spent up to now is       15.1 secs

     Computing kpt #:   151  of   221
     total cpu time spent up to now is       15.2 secs

     Computing kpt #:   152  of   221
     total cpu time spent up to now is       15.3 secs

     Computing kpt #:   153  of   221
     total cpu time spent up to now is       15.4 secs

     Computing kpt #:   154  of   221
     total cpu time spent up to now is       15.4 secs

     Computing kpt #:   155  of   221
     total cpu time spent up to now is       15.5 secs

     Computing kpt #:   156  of   221
     total cpu time spent up to now is       15.6 secs

     Computing kpt #:   157  of   221
     total cpu time spent up to now is       15.7 secs

     Computing kpt #:   158  of   221
     total cpu time spent up to now is       15.8 secs

     Computing kpt #:   159  of   221
     total cpu time spent up to now is       15.9 secs

     Computing kpt #:   160  of   221
     total cpu time spent up to now is       16.0 secs

     Computing kpt #:   161  of   221
     total cpu time spent up to now is       16.1 secs

     Computing kpt #:   162  of   221
     total cpu time spent up to now is       16.2 secs

     Computing kpt #:   163  of   221
     total cpu time spent up to now is       16.3 secs

     Computing kpt #:   164  of   221
     total cpu time spent up to now is       16.4 secs

     Computing kpt #:   165  of   221
     total cpu time spent up to now is       16.5 secs

     Computing kpt #:   166  of   221
     total cpu time spent up to now is       16.5 secs

     Computing kpt #:   167  of   221
     total cpu time spent up to now is       16.6 secs

     Computing kpt #:   168  of   221
     total cpu time spent up to now is       16.7 secs

     Computing kpt #:   169  of   221
     total cpu time spent up to now is       16.8 secs

     Computing kpt #:   170  of   221
     total cpu time spent up to now is       16.9 secs

     Computing kpt #:   171  of   221
     total cpu time spent up to now is       17.0 secs

     Computing kpt #:   172  of   221
     total cpu time spent up to now is       17.1 secs

     Computing kpt #:   173  of   221
     total cpu time spent up to now is       17.2 secs

     Computing kpt #:   174  of   221
     total cpu time spent up to now is       17.2 secs

     Computing kpt #:   175  of   221
     total cpu time spent up to now is       17.3 secs

     Computing kpt #:   176  of   221
     total cpu time spent up to now is       17.4 secs

     Computing kpt #:   177  of   221
     total cpu time spent up to now is       17.5 secs

     Computing kpt #:   178  of   221
     total cpu time spent up to now is       17.6 secs

     Computing kpt #:   179  of   221
     total cpu time spent up to now is       17.7 secs

     Computing kpt #:   180  of   221
     total cpu time spent up to now is       17.7 secs

     Computing kpt #:   181  of   221
     total cpu time spent up to now is       17.8 secs

     Computing kpt #:   182  of   221
     total cpu time spent up to now is       17.9 secs

     Computing kpt #:   183  of   221
     total cpu time spent up to now is       18.0 secs

     Computing kpt #:   184  of   221
     total cpu time spent up to now is       18.1 secs

     Computing kpt #:   185  of   221
     total cpu time spent up to now is       18.1 secs

     Computing kpt #:   186  of   221
     total cpu time spent up to now is       18.2 secs

     Computing kpt #:   187  of   221
     total cpu time spent up to now is       18.3 secs

     Computing kpt #:   188  of   221
     total cpu time spent up to now is       18.4 secs

     Computing kpt #:   189  of   221
     total cpu time spent up to now is       18.5 secs

     Computing kpt #:   190  of   221
     total cpu time spent up to now is       18.6 secs

     Computing kpt #:   191  of   221
     total cpu time spent up to now is       18.6 secs

     Computing kpt #:   192  of   221
     total cpu time spent up to now is       18.7 secs

     Computing kpt #:   193  of   221
     total cpu time spent up to now is       18.8 secs

     Computing kpt #:   194  of   221
     total cpu time spent up to now is       18.9 secs

     Computing kpt #:   195  of   221
     total cpu time spent up to now is       18.9 secs

     Computing kpt #:   196  of   221
     total cpu time spent up to now is       19.0 secs

     Computing kpt #:   197  of   221
     total cpu time spent up to now is       19.1 secs

     Computing kpt #:   198  of   221
     total cpu time spent up to now is       19.2 secs

     Computing kpt #:   199  of   221
     total cpu time spent up to now is       19.3 secs

     Computing kpt #:   200  of   221
     total cpu time spent up to now is       19.4 secs

     Computing kpt #:   201  of   221
     total cpu time spent up to now is       19.4 secs

     Computing kpt #:   202  of   221
     total cpu time spent up to now is       19.5 secs

     Computing kpt #:   203  of   221
     total cpu time spent up to now is       19.6 secs

     Computing kpt #:   204  of   221
     total cpu time spent up to now is       19.7 secs

     Computing kpt #:   205  of   221
     total cpu time spent up to now is       19.7 secs

     Computing kpt #:   206  of   221
     total cpu time spent up to now is       19.8 secs

     Computing kpt #:   207  of   221
     total cpu time spent up to now is       19.9 secs

     Computing kpt #:   208  of   221
     total cpu time spent up to now is       20.0 secs

     Computing kpt #:   209  of   221
     total cpu time spent up to now is       20.1 secs

     Computing kpt #:   210  of   221
     total cpu time spent up to now is       20.1 secs

     Computing kpt #:   211  of   221
     total cpu time spent up to now is       20.2 secs

     Computing kpt #:   212  of   221
     total cpu time spent up to now is       20.3 secs

     Computing kpt #:   213  of   221
     total cpu time spent up to now is       20.3 secs

     Computing kpt #:   214  of   221
     total cpu time spent up to now is       20.4 secs

     Computing kpt #:   215  of   221
     total cpu time spent up to now is       20.5 secs

     Computing kpt #:   216  of   221
     total cpu time spent up to now is       20.6 secs

     Computing kpt #:   217  of   221
     total cpu time spent up to now is       20.6 secs

     Computing kpt #:   218  of   221
     total cpu time spent up to now is       20.7 secs

     Computing kpt #:   219  of   221
     total cpu time spent up to now is       20.7 secs

     Computing kpt #:   220  of   221
     total cpu time spent up to now is       20.8 secs

     Computing kpt #:   221  of   221
     total cpu time spent up to now is       20.9 secs

     ethr =  3.12E-09,  avg # of iterations = 21.8

     total cpu time spent up to now is       20.9 secs

     End of band structure calculation

          k = 0.0000 0.0000 0.0000 (  1647 PWs)   bands (ev):

    -5.8297  -1.6732  -1.6732  -1.6732  -1.6723  -1.6720  -1.6720   3.2828
     3.2828   3.2828   3.2829   3.2829   3.2829   6.1644   6.1644   6.1644

          k = 0.0250 0.0000 0.0250 (  1641 PWs)   bands (ev):

    -5.8242  -1.8640  -1.8639  -1.6747  -1.6667  -1.4760  -1.4760   3.2440
     3.2761   3.2762   3.2769   3.2770   3.2872   6.1050   6.1399   6.1621

          k = 0.0500 0.0000 0.0500 (  1641 PWs)   bands (ev):

    -5.8077  -2.0491  -2.0491  -1.6814  -1.6490  -1.2751  -1.2751   3.1350
     3.2554   3.2554   3.2616   3.2616   3.3005   5.9408   6.0682   6.1549

          k = 0.0750 0.0000 0.0750 (  1645 PWs)   bands (ev):

    -5.7804  -2.2271  -2.2270  -1.6935  -1.6196  -1.0727  -1.0726   2.9751
     3.2203   3.2203   3.2409   3.2409   3.3225   5.7022   5.9542   6.1426

          k = 0.1000 0.0000 0.1000 (  1637 PWs)   bands (ev):

    -5.7421  -2.3973  -2.3972  -1.7118  -1.5777  -0.8700  -0.8699   2.7858
     3.1723   3.1723   3.2196   3.2196   3.3535   5.4176   5.8044   6.1248

          k = 0.1250 0.0000 0.1250 (  1643 PWs)   bands (ev):

    -5.6928  -2.5593  -2.5592  -1.7390  -1.5246  -0.6696  -0.6695   2.5849
     3.1135   3.1136   3.2028   3.2028   3.3929   5.1066   5.6262   6.1011

          k = 0.1500 0.0000 0.1500 (  1643 PWs)   bands (ev):

    -5.6330  -2.7122  -2.7121  -1.7768  -1.4596  -0.4743  -0.4743   2.3867
     3.0469   3.0469   3.1959   3.1960   3.4408   4.7814   5.4245   6.0707

          k = 0.1750 0.0000 0.1750 (  1642 PWs)   bands (ev):

    -5.5625  -2.8558  -2.8557  -1.8276  -1.3829  -0.2875  -0.2875   2.2017
     2.9751   2.9751   3.2041   3.2042   3.4971   4.4497   5.2074   6.0327

          k = 0.2000 0.0000 0.2000 (  1630 PWs)   bands (ev):

    -5.4812  -2.9898  -2.9897  -1.8939  -1.2945  -0.1128  -0.1127   2.0381
     2.9007   2.9007   3.2323   3.2324   3.5614   4.1181   4.9793   5.9874

          k = 0.2250 0.0000 0.2250 (  1632 PWs)   bands (ev):

    -5.3896  -3.1139  -3.1138  -1.9776  -1.1944   0.0462   0.0463   1.9017
     2.8261   2.8261   3.2849   3.2850   3.6338   3.7884   4.7438   5.9333

          k = 0.2500 0.0000 0.2500 (  1628 PWs)   bands (ev):

    -5.2879  -3.2278  -3.2277  -2.0802  -1.0826   0.1867   0.1867   1.7962
     2.7533   2.7533   3.3652   3.3653   3.4622   3.7137   4.5041   5.8702

          k = 0.2750 0.0000 0.2750 (  1622 PWs)   bands (ev):

    -5.1760  -3.3314  -3.3313  -2.2013  -0.9592   0.3064   0.3064   1.7241
     2.6836   2.6837   3.1430   3.4745   3.4746   3.8009   4.2634   5.7982

          k = 0.3000 0.0000 0.3000 (  1620 PWs)   bands (ev):

    -5.0543  -3.4245  -3.4244  -2.3400  -0.8243   0.4048   0.4048   1.6855
     2.6187   2.6187   2.8308   3.6124   3.6125   3.8949   4.0235   5.7174

          k = 0.3250 0.0000 0.3250 (  1614 PWs)   bands (ev):

    -4.9230  -3.5068  -3.5067  -2.4943  -0.6778   0.4828   0.4828   1.6795
     2.5270   2.5593   2.5594   3.7758   3.7759   3.7874   3.9952   5.6274

          k = 0.3500 0.0000 0.3500 (  1618 PWs)   bands (ev):

    -4.7826  -3.5785  -3.5784  -2.6616  -0.5199   0.5423   0.5424   1.7040
     2.2317   2.5064   2.5065   3.5561   3.9588   3.9589   4.1014   5.5291

          k = 0.3750 0.0000 0.3750 (  1632 PWs)   bands (ev):

    -4.6337  -3.6393  -3.6392  -2.8388  -0.3506   0.5864   0.5864   1.7567
     1.9448   2.4608   2.4608   3.3313   4.1535   4.1536   4.2129   5.4228

          k = 0.4000 0.0000 0.4000 (  1636 PWs)   bands (ev):

    -4.4763  -3.6891  -3.6890  -3.0232  -0.1701   0.6179   0.6180   1.6682
     1.8349   2.4229   2.4229   3.1146   4.3289   4.3493   4.3494   5.3108

          k = 0.4250 0.0000 0.4250 (  1636 PWs)   bands (ev):

    -4.3113  -3.7279  -3.7278  -3.2115   0.0217   0.6395   0.6395   1.4015
     1.9359   2.3930   2.3930   2.9072   4.4488   4.5318   4.5319   5.1935

          k = 0.4500 0.0000 0.4500 (  1634 PWs)   bands (ev):

    -4.1392  -3.7556  -3.7555  -3.4014   0.2246   0.6532   0.6533   1.1450
     2.0575   2.3715   2.3715   2.7104   4.5716   4.6837   4.6838   5.0722

          k = 0.4750 0.0000 0.4750 (  1638 PWs)   bands (ev):

    -3.9611  -3.7723  -3.7722  -3.5908   0.4385   0.6609   0.6609   0.8989
     2.1976   2.3585   2.3585   2.5256   4.6964   4.7860   4.7861   4.9482

          k = 0.5000 0.0000 0.5000 (  1628 PWs)   bands (ev):

    -3.7780  -3.7778  -3.7778  -3.7777   0.6633   0.6633   0.6633   0.6633
     2.3541   2.3542   2.3542   2.3542   4.8227   4.8227   4.8227   4.8228

          k = 0.5000 0.0125 0.5125 (  1632 PWs)   bands (ev):

    -3.8234  -3.8233  -3.7307  -3.7306   0.6015   0.6016   0.7165   0.7165
     2.3193   2.3193   2.4015   2.4016   4.7890   4.7890   4.8520   4.8520

          k = 0.5000 0.0250 0.5250 (  1638 PWs)   bands (ev):

    -3.8670  -3.8669  -3.6820  -3.6819   0.5318   0.5319   0.7607   0.7607
     2.2964   2.2965   2.4615   2.4616   4.7512   4.7512   4.8768   4.8768

          k = 0.5000 0.0375 0.5375 (  1638 PWs)   bands (ev):

    -3.9088  -3.9087  -3.6319  -3.6318   0.4553   0.4554   0.7961   0.7961
     2.2846   2.2847   2.5338   2.5338   4.7097   4.7098   4.8973   4.8973

          k = 0.5000 0.0500 0.5500 (  1638 PWs)   bands (ev):

    -3.9485  -3.9484  -3.5807  -3.5806   0.3734   0.3734   0.8234   0.8235
     2.2827   2.2828   2.6173   2.6174   4.6646   4.6646   4.9134   4.9135

          k = 0.5000 0.0625 0.5625 (  1638 PWs)   bands (ev):

    -3.9862  -3.9860  -3.5285  -3.5284   0.2874   0.2874   0.8435   0.8435
     2.2895   2.2896   2.7110   2.7110   4.6163   4.6163   4.9250   4.9251

          k = 0.5000 0.0750 0.5750 (  1638 PWs)   bands (ev):

    -4.0217  -4.0215  -3.4755  -3.4754   0.1987   0.1988   0.8574   0.8574
     2.3037   2.3037   2.8134   2.8134   4.5655   4.5655   4.9320   4.9320

          k = 0.5000 0.0875 0.5875 (  1640 PWs)   bands (ev):

    -4.0549  -4.0548  -3.4222  -3.4221   0.1088   0.1088   0.8662   0.8662
     2.3240   2.3241   2.9230   2.9231   4.5123   4.5123   4.9346   4.9346

          k = 0.5000 0.1000 0.6000 (  1636 PWs)   bands (ev):

    -4.0859  -4.0858  -3.3689  -3.3688   0.0188   0.0188   0.8710   0.8711
     2.3494   2.3495   3.0384   3.0385   4.4575   4.4575   4.9326   4.9327

          k = 0.5000 0.1125 0.6125 (  1634 PWs)   bands (ev):

    -4.1146  -4.1144  -3.3158  -3.3157  -0.0700  -0.0700   0.8727   0.8728
     2.3790   2.3791   3.1581   3.1582   4.4016   4.4016   4.9260   4.9260

          k = 0.5000 0.1250 0.6250 (  1632 PWs)   bands (ev):

    -4.1408  -4.1407  -3.2637  -3.2636  -0.1566  -0.1566   0.8722   0.8722
     2.4114   2.4115   3.2809   3.2809   4.3453   4.3454   4.9146   4.9147

          k = 0.5000 0.1375 0.6375 (  1632 PWs)   bands (ev):

    -4.1647  -4.1646  -3.2130  -3.2129  -0.2397  -0.2397   0.8700   0.8701
     2.4458   2.4459   3.4052   3.4052   4.2896   4.2896   4.8983   4.8983

          k = 0.5000 0.1500 0.6500 (  1628 PWs)   bands (ev):

    -4.1861  -4.1860  -3.1643  -3.1642  -0.3185  -0.3184   0.8669   0.8670
     2.4814   2.4815   3.5300   3.5300   4.2350   4.2350   4.8767   4.8767

          k = 0.5000 0.1625 0.6625 (  1630 PWs)   bands (ev):

    -4.2051  -4.2050  -3.1184  -3.1183  -0.3915  -0.3915   0.8632   0.8633
     2.5169   2.5170   3.6536   3.6536   4.1827   4.1827   4.8496   4.8496

          k = 0.5000 0.1750 0.6750 (  1634 PWs)   bands (ev):

    -4.2216  -4.2214  -3.0761  -3.0760  -0.4580  -0.4579   0.8592   0.8593
     2.5512   2.5513   3.7749   3.7750   4.1336   4.1337   4.8166   4.8167

          k = 0.5000 0.1875 0.6875 (  1632 PWs)   bands (ev):

    -4.2355  -4.2354  -3.0381  -3.0380  -0.5166  -0.5166   0.8555   0.8556
     2.5833   2.5834   3.8925   3.8925   4.0891   4.0891   4.7777   4.7778

          k = 0.5000 0.2000 0.7000 (  1632 PWs)   bands (ev):

    -4.2470  -4.2469  -3.0055  -3.0054  -0.5664  -0.5664   0.8522   0.8522
     2.6121   2.6122   4.0044   4.0044   4.0502   4.0503   4.7327   4.7328

          k = 0.5000 0.2125 0.7125 (  1638 PWs)   bands (ev):

    -4.2560  -4.2559  -2.9789  -2.9788  -0.6065  -0.6065   0.8494   0.8495
     2.6360   2.6361   4.0182   4.0182   4.1086   4.1086   4.6824   4.6825

          k = 0.5000 0.2250 0.7250 (  1644 PWs)   bands (ev):

    -4.2624  -4.2622  -2.9593  -2.9592  -0.6358  -0.6358   0.8473   0.8474
     2.6541   2.6542   3.9942   3.9942   4.2013   4.2013   4.6293   4.6294

          k = 0.5000 0.2375 0.7375 (  1644 PWs)   bands (ev):

    -4.2662  -4.2661  -2.9473  -2.9472  -0.6537  -0.6537   0.8460   0.8461
     2.6655   2.6656   3.9794   3.9795   4.2737   4.2737   4.5812   4.5813

          k = 0.5000 0.2500 0.7500 (  1622 PWs)   bands (ev):

    -4.2673  -4.2672  -2.9432  -2.9431  -0.6597  -0.6597   0.8459   0.8459
     2.6694   2.6695   3.9744   3.9744   4.3046   4.3047   4.5591   4.5592

          k = 0.4938 0.2563 0.7500 (  1649 PWs)   bands (ev):

    -4.2806  -4.2314  -2.9574  -2.9561  -0.6615  -0.6601   0.7833   0.8430
     2.6968   2.6982   3.9964   3.9971   4.2660   4.3550   4.5474   4.5870

          k = 0.4875 0.2625 0.7500 (  1649 PWs)   bands (ev):

[...]
     2.6694   2.6695   3.9744   3.9744   4.3046   4.3047   4.5591   4.5592

          k = 0.5000 0.2625 0.7375 (  1650 PWs)   bands (ev):

    -4.2219  -4.2218  -2.9950  -2.9949  -0.6678  -0.6678   0.7162   0.7163
     2.7854   2.7855   4.0611   4.0611   4.3391   4.3392   4.5859   4.5860

          k = 0.5000 0.2750 0.7250 (  1650 PWs)   bands (ev):

    -4.1749  -4.1748  -3.0442  -3.0441  -0.6780  -0.6780   0.5885   0.5886
     2.9073   2.9074   4.1453   4.1453   4.3762   4.3762   4.6135   4.6136

          k = 0.5000 0.2875 0.7125 (  1638 PWs)   bands (ev):

    -4.1267  -4.1266  -3.0910  -3.0909  -0.6899  -0.6899   0.4627   0.4628
     3.0347   3.0348   4.2269   4.2269   4.4150   4.4150   4.6412   4.6414

          k = 0.5000 0.3000 0.7000 (  1642 PWs)   bands (ev):

    -4.0775  -4.0773  -3.1352  -3.1351  -0.7030  -0.7030   0.3394   0.3395
     3.1661   3.1662   4.3052   4.3052   4.4552   4.4552   4.6690   4.6692

          k = 0.5000 0.3125 0.6875 (  1642 PWs)   bands (ev):

    -4.0274  -4.0273  -3.1769  -3.1768  -0.7169  -0.7169   0.2190   0.2190
     3.3012   3.3014   4.3802   4.3802   4.4965   4.4966   4.6967   4.6968

          k = 0.5000 0.3250 0.6750 (  1634 PWs)   bands (ev):

    -3.9769  -3.9768  -3.2160  -3.2159  -0.7312  -0.7312   0.1019   0.1019
     3.4395   3.4396   4.4515   4.4515   4.5387   4.5387   4.7240   4.7242

          k = 0.5000 0.3375 0.6625 (  1626 PWs)   bands (ev):

    -3.9262  -3.9261  -3.2524  -3.2523  -0.7456  -0.7456  -0.0114  -0.0113
     3.5801   3.5802   4.5192   4.5192   4.5813   4.5813   4.7509   4.7510

          k = 0.5000 0.3500 0.6500 (  1630 PWs)   bands (ev):

    -3.8756  -3.8755  -3.2863  -3.2862  -0.7599  -0.7599  -0.1203  -0.1203
     3.7218   3.7219   4.5821   4.5821   4.6239   4.6239   4.7769   4.7770

          k = 0.5000 0.3625 0.6375 (  1632 PWs)   bands (ev):

    -3.8257  -3.8255  -3.3175  -3.3174  -0.7738  -0.7738  -0.2244  -0.2244
     3.8641   3.8642   4.6407   4.6407   4.6661   4.6661   4.8020   4.8022

          k = 0.5000 0.3750 0.6250 (  1636 PWs)   bands (ev):

    -3.7767  -3.7766  -3.3460  -3.3459  -0.7871  -0.7871  -0.3231  -0.3230
     4.0058   4.0059   4.6945   4.6945   4.7075   4.7075   4.8259   4.8261

          k = 0.5000 0.3875 0.6125 (  1632 PWs)   bands (ev):

    -3.7294  -3.7293  -3.3719  -3.3718  -0.7996  -0.7996  -0.4156  -0.4156
     4.1457   4.1458   4.7438   4.7438   4.7476   4.7476   4.8485   4.8486

          k = 0.5000 0.4000 0.6000 (  1626 PWs)   bands (ev):

    -3.6841  -3.6840  -3.3951  -3.3950  -0.8111  -0.8111  -0.5015  -0.5014
     4.2822   4.2824   4.7860   4.7860   4.7879   4.7879   4.8694   4.8695

          k = 0.5000 0.4125 0.5875 (  1630 PWs)   bands (ev):

    -3.6418  -3.6416  -3.4156  -3.4154  -0.8216  -0.8215  -0.5799  -0.5798
     4.4137   4.4138   4.8218   4.8218   4.8269   4.8270   4.8881   4.8883

          k = 0.5000 0.4250 0.5750 (  1622 PWs)   bands (ev):

    -3.6028  -3.6027  -3.4333  -3.4332  -0.8308  -0.8308  -0.6501  -0.6500
     4.5379   4.5380   4.8545   4.8545   4.8609   4.8609   4.9051   4.9053

          k = 0.5000 0.4375 0.5625 (  1622 PWs)   bands (ev):

    -3.5682  -3.5680  -3.4484  -3.4483  -0.8388  -0.8388  -0.7113  -0.7112
     4.6521   4.6523   4.8836   4.8836   4.8895   4.8895   4.9199   4.9200

          k = 0.5000 0.4500 0.5500 (  1626 PWs)   bands (ev):

    -3.5386  -3.5384  -3.4607  -3.4606  -0.8454  -0.8454  -0.7627  -0.7626
     4.7529   4.7531   4.9084   4.9084   4.9130   4.9130   4.9322   4.9323

          k = 0.5000 0.4625 0.5375 (  1634 PWs)   bands (ev):

    -3.5146  -3.5145  -3.4703  -3.4702  -0.8507  -0.8507  -0.8036  -0.8035
     4.8371   4.8373   4.9281   4.9281   4.9313   4.9313   4.9418   4.9420

          k = 0.5000 0.4750 0.5250 (  1640 PWs)   bands (ev):

    -3.4971  -3.4970  -3.4772  -3.4771  -0.8544  -0.8544  -0.8333  -0.8333
     4.9010   4.9011   4.9427   4.9427   4.9442   4.9442   4.9489   4.9490

          k = 0.5000 0.4875 0.5125 (  1640 PWs)   bands (ev):

    -3.4863  -3.4862  -3.4813  -3.4812  -0.8567  -0.8567  -0.8514  -0.8514
     4.9409   4.9411   4.9516   4.9516   4.9520   4.9520   4.9531   4.9533

          k = 0.5000 0.5000 0.5000 (  1640 PWs)   bands (ev):

    -3.4828  -3.4826  -3.4826  -3.4826  -0.8575  -0.8575  -0.8575  -0.8574
     4.9545   4.9545   4.9545   4.9547   4.9547   4.9547   4.9547   4.9547

          k = 0.4938 0.4938 0.5125 (  1640 PWs)   bands (ev):

    -3.4866  -3.4829  -3.4828  -3.4816  -0.8569  -0.8556  -0.8555  -0.8516
     4.9444   4.9471   4.9471   4.9527   4.9529   4.9530   4.9535   4.9554

          k = 0.4875 0.4875 0.5250 (  1640 PWs)   bands (ev):

    -3.4984  -3.4836  -3.4835  -3.4785  -0.8552  -0.8499  -0.8499  -0.8341
     4.9142   4.9248   4.9249   4.9468   4.9477   4.9478   4.9500   4.9579

          k = 0.4813 0.4813 0.5375 (  1636 PWs)   bands (ev):

    -3.5177  -3.4846  -3.4845  -3.4734  -0.8524  -0.8404  -0.8404  -0.8053
     4.8654   4.8887   4.8888   4.9371   4.9393   4.9394   4.9442   4.9619

          k = 0.4750 0.4750 0.5500 (  1627 PWs)   bands (ev):

    -3.5440  -3.4861  -3.4860  -3.4661  -0.8484  -0.8273  -0.8273  -0.7657
     4.8002   4.8401   4.8401   4.9241   4.9275   4.9276   4.9361   4.9675

          k = 0.4688 0.4688 0.5625 (  1625 PWs)   bands (ev):

    -3.5766  -3.4879  -3.4878  -3.4569  -0.8434  -0.8105  -0.8105  -0.7159
     4.7204   4.7801   4.7802   4.9072   4.9123   4.9124   4.9260   4.9749

          k = 0.4625 0.4625 0.5750 (  1625 PWs)   bands (ev):

    -3.6150  -3.4900  -3.4899  -3.4456  -0.8373  -0.7902  -0.7902  -0.6566
     4.6286   4.7108   4.7108   4.8868   4.8939   4.8940   4.9138   4.9837

          k = 0.4563 0.4563 0.5875 (  1621 PWs)   bands (ev):

    -3.6583  -3.4923  -3.4922  -3.4322  -0.8302  -0.7664  -0.7664  -0.5887
     4.5271   4.6335   4.6336   4.8634   4.8725   4.8726   4.8996   4.9945

          k = 0.4500 0.4500 0.6000 (  1625 PWs)   bands (ev):

    -3.7059  -3.4948  -3.4947  -3.4169  -0.8222  -0.7393  -0.7393  -0.5129
     4.4175   4.5499   4.5500   4.8370   4.8480   4.8481   4.8836   5.0064

          k = 0.4438 0.4438 0.6125 (  1633 PWs)   bands (ev):

    -3.7568  -3.4974  -3.4973  -3.3995  -0.8134  -0.7090  -0.7090  -0.4298
     4.3018   4.4611   4.4612   4.8079   4.8205   4.8206   4.8659   5.0199

          k = 0.4375 0.4375 0.6250 (  1629 PWs)   bands (ev):

    -3.8106  -3.5000  -3.4999  -3.3800  -0.8036  -0.6757  -0.6757  -0.3401
     4.1814   4.3687   4.3688   4.7765   4.7904   4.7905   4.8468   5.0349

          k = 0.4313 0.4313 0.6375 (  1633 PWs)   bands (ev):

    -3.8667  -3.5025  -3.5024  -3.3586  -0.7932  -0.6395  -0.6394  -0.2445
     4.0575   4.2733   4.2733   4.7429   4.7576   4.7577   4.8262   5.0515

          k = 0.4250 0.4250 0.6500 (  1633 PWs)   bands (ev):

    -3.9244  -3.5049  -3.5048  -3.3351  -0.7820  -0.6005  -0.6005  -0.1435
     3.9311   4.1759   4.1760   4.7075   4.7222   4.7223   4.8047   5.0695

          k = 0.4188 0.4188 0.6625 (  1637 PWs)   bands (ev):

    -3.9834  -3.5070  -3.5069  -3.3097  -0.7703  -0.5591  -0.5591  -0.0375
     3.8031   4.0773   4.0774   4.6705   4.6844   4.6845   4.7819   5.0890

          k = 0.4125 0.4125 0.6750 (  1633 PWs)   bands (ev):

    -4.0433  -3.5088  -3.5087  -3.2822  -0.7583  -0.5153  -0.5153   0.0729
     3.6742   3.9783   3.9783   4.6322   4.6445   4.6446   4.7583   5.1099

          k = 0.4063 0.4063 0.6875 (  1630 PWs)   bands (ev):

    -4.1036  -3.5101  -3.5100  -3.2528  -0.7459  -0.4695  -0.4694   0.1874
     3.5451   3.8794   3.8794   4.5929   4.6025   4.6026   4.7339   5.1323

          k = 0.4000 0.4000 0.7000 (  1632 PWs)   bands (ev):

    -4.1641  -3.5109  -3.5108  -3.2214  -0.7335  -0.4218  -0.4218   0.3056
     3.4160   3.7811   3.7812   4.5525   4.5587   4.5588   4.7090   5.1559

          k = 0.3938 0.3938 0.7125 (  1630 PWs)   bands (ev):

    -4.2246  -3.5111  -3.5110  -3.1881  -0.7213  -0.3726  -0.3726   0.4273
     3.2884   3.6840   3.6840   4.5116   4.5129   4.5130   4.6836   5.1808

          k = 0.3875 0.3875 0.7250 (  1631 PWs)   bands (ev):

    -4.2847  -3.5107  -3.5106  -3.1528  -0.7093  -0.3221  -0.3221   0.5521
     3.1622   3.5885   3.5885   4.4656   4.4657   4.4703   4.6580   5.2069

          k = 0.3813 0.3813 0.7375 (  1637 PWs)   bands (ev):

    -4.3443  -3.5096  -3.5095  -3.1157  -0.6979  -0.2706  -0.2706   0.6798
     3.0381   3.4948   3.4948   4.4166   4.4167   4.4286   4.6323   5.2342

          k = 0.3750 0.3750 0.7500 (  1638 PWs)   bands (ev):

    -4.4032  -3.5076  -3.5075  -3.0766  -0.6873  -0.2186  -0.2186   0.8101
     2.9166   3.4038   3.4039   4.3665   4.3666   4.3870   4.6067   5.2627

          k = 0.3875 0.3688 0.7438 (  1634 PWs)   bands (ev):

    -4.3730  -3.5646  -3.4535  -3.0956  -0.6922  -0.3042  -0.1817   0.7449
     2.9759   3.3845   3.5146   4.3691   4.4040   4.4129   4.6187   5.2417

          k = 0.4000 0.3625 0.7375 (  1633 PWs)   bands (ev):

    -4.3412  -3.6208  -3.4023  -3.1126  -0.6969  -0.3838  -0.1434   0.6809
     3.0331   3.3671   3.6269   4.3714   4.4138   4.4561   4.6288   5.2074

          k = 0.4125 0.3563 0.7313 (  1634 PWs)   bands (ev):

    -4.3077  -3.6759  -3.3546  -3.1277  -0.7013  -0.4567  -0.1036   0.6182
     3.0874   3.3517   3.7401   4.3735   4.4173   4.4956   4.6365   5.1606

          k = 0.4250 0.3500 0.7250 (  1632 PWs)   bands (ev):

    -4.2725  -3.7299  -3.3109  -3.1407  -0.7052  -0.5221  -0.0623   0.5567
     3.1379   3.3384   3.8538   4.3753   4.4157   4.5316   4.6418   5.1025

          k = 0.4375 0.3438 0.7188 (  1636 PWs)   bands (ev):

    -4.2356  -3.7827  -3.2721  -3.1517  -0.7087  -0.5794  -0.0194   0.4967
     3.1837   3.3271   3.9675   4.3767   4.4103   4.5642   4.6439   5.0347

          k = 0.4500 0.3375 0.7125 (  1637 PWs)   bands (ev):

    -4.1971  -3.8343  -3.2391  -3.1607  -0.7116  -0.6276   0.0251   0.4382
     3.2236   3.3178   4.0805   4.3780   4.4026   4.5934   4.6415   4.9593

          k = 0.4625 0.3313 0.7063 (  1637 PWs)   bands (ev):

    -4.1570  -3.8846  -3.2124  -3.1678  -0.7138  -0.6661   0.0711   0.3811
     3.2566   3.3106   4.1920   4.3790   4.3942   4.6197   4.6326   4.8798

          k = 0.4750 0.3250 0.7000 (  1635 PWs)   bands (ev):

    -4.1153  -3.9336  -3.1928  -3.1728  -0.7155  -0.6941   0.1188   0.3255
     3.2811   3.3055   4.3006   4.3797   4.3869   4.6119   4.6442   4.8026

          k = 0.4875 0.3188 0.6938 (  1637 PWs)   bands (ev):

    -4.0721  -3.9812  -3.1809  -3.1758  -0.7165  -0.7112   0.1681   0.2715
     3.2962   3.3024   4.3801   4.3820   4.4038   4.5688   4.6683   4.7389

          k = 0.5000 0.3125 0.6875 (  1642 PWs)   bands (ev):

    -4.0274  -4.0273  -3.1769  -3.1768  -0.7169  -0.7169   0.2190   0.2190
     3.3012   3.3014   4.3802   4.3802   4.4965   4.4966   4.6967   4.6968

          k = 0.5125 0.3063 0.6813 (  1637 PWs)   bands (ev):

    -4.0721  -3.9812  -3.1809  -3.1758  -0.7165  -0.7112   0.1681   0.2715
     3.2962   3.3024   4.3801   4.3820   4.4038   4.5688   4.6683   4.7389

          k = 0.5250 0.3000 0.6750 (  1635 PWs)   bands (ev):

    -4.1153  -3.9336  -3.1928  -3.1728  -0.7155  -0.6941   0.1188   0.3255
     3.2811   3.3055   4.3006   4.3797   4.3869   4.6119   4.6442   4.8026

          k = 0.5375 0.2938 0.6688 (  1637 PWs)   bands (ev):

    -4.1570  -3.8846  -3.2124  -3.1678  -0.7138  -0.6661   0.0711   0.3811
     3.2566   3.3106   4.1920   4.3790   4.3942   4.6197   4.6326   4.8798

          k = 0.5500 0.2875 0.6625 (  1637 PWs)   bands (ev):

    -4.1971  -3.8343  -3.2391  -3.1607  -0.7116  -0.6276   0.0251   0.4382
     3.2236   3.3178   4.0805   4.3780   4.4026   4.5934   4.6415   4.9593

          k = 0.5625 0.2813 0.6563 (  1636 PWs)   bands (ev):

    -4.2356  -3.7827  -3.2721  -3.1517  -0.7087  -0.5794  -0.0194   0.4967
     3.1837   3.3271   3.9675   4.3767   4.4103   4.5642   4.6439   5.0347

          k = 0.5750 0.2750 0.6500 (  1632 PWs)   bands (ev):

    -4.2725  -3.7299  -3.3109  -3.1407  -0.7052  -0.5221  -0.0623   0.5567
     3.1379   3.3384   3.8538   4.3753   4.4157   4.5316   4.6418   5.1025

          k = 0.5875 0.2688 0.6438 (  1634 PWs)   bands (ev):

    -4.3077  -3.6759  -3.3546  -3.1277  -0.7013  -0.4567  -0.1036   0.6182
     3.0874   3.3517   3.7401   4.3735   4.4173   4.4956   4.6365   5.1606

          k = 0.6000 0.2625 0.6375 (  1633 PWs)   bands (ev):

    -4.3412  -3.6208  -3.4023  -3.1126  -0.6969  -0.3838  -0.1434   0.6809
     3.0331   3.3671   3.6269   4.3714   4.4138   4.4561   4.6288   5.2074

          k = 0.6125 0.2563 0.6313 (  1634 PWs)   bands (ev):

    -4.3730  -3.5646  -3.4535  -3.0956  -0.6922  -0.3042  -0.1817   0.7449
     2.9759   3.3845   3.5146   4.3691   4.4040   4.4129   4.6187   5.2417

          k = 0.6250 0.2500 0.6250 (  1638 PWs)   bands (ev):

    -4.4032  -3.5076  -3.5075  -3.0766  -0.6873  -0.2186  -0.2186   0.8101
     2.9166   3.4038   3.4039   4.3665   4.3666   4.3870   4.6067   5.2627

          k = 0.6188 0.2375 0.6188 (  1634 PWs)   bands (ev):

    -4.3889  -3.5322  -3.5321  -3.0688  -0.6759  -0.1708  -0.1708   0.8160
     2.8564   3.3729   3.3729   4.3788   4.3789   4.3960   4.4840   5.2640

          k = 0.6125 0.2250 0.6125 (  1630 PWs)   bands (ev):

    -4.3727  -3.5559  -3.5558  -3.0693  -0.6532  -0.1212  -0.1212   0.8224
     2.7978   3.3320   3.3320   4.3561   4.3964   4.3965   4.4065   5.2614

          k = 0.6063 0.2125 0.6063 (  1637 PWs)   bands (ev):

    -4.3546  -3.5787  -3.5786  -3.0778  -0.6196  -0.0701  -0.0701   0.8293
     2.7408   3.2822   3.2822   4.2243   4.4186   4.4187   4.4188   5.2551

          k = 0.6000 0.2000 0.6000 (  1639 PWs)   bands (ev):

    -4.3346  -3.6005  -3.6004  -3.0935  -0.5758  -0.0176  -0.0176   0.8365
     2.6858   3.2249   3.2249   4.0900   4.4323   4.4449   4.4450   5.2453

          k = 0.5938 0.1875 0.5938 (  1626 PWs)   bands (ev):

    -4.3125  -3.6211  -3.6210  -3.1158  -0.5227   0.0362   0.0362   0.8442
     2.6328   3.1620   3.1620   3.9543   4.4474   4.4742   4.4743   5.2325

          k = 0.5875 0.1750 0.5875 (  1622 PWs)   bands (ev):

    -4.2887  -3.6406  -3.6405  -3.1440  -0.4614   0.0910   0.0910   0.8514
     2.5821   3.0947   3.0947   3.8178   4.4640   4.5058   4.5059   5.2165

          k = 0.5813 0.1625 0.5813 (  1628 PWs)   bands (ev):

    -4.2631  -3.6590  -3.6589  -3.1771  -0.3927   0.1463   0.1463   0.8583
     2.5339   3.0242   3.0242   3.6813   4.4819   4.5385   4.5387   5.1977

          k = 0.5750 0.1500 0.5750 (  1636 PWs)   bands (ev):

    -4.2356  -3.6762  -3.6761  -3.2144  -0.3179   0.2019   0.2019   0.8646
     2.4886   2.9518   2.9518   3.5463   4.5014   4.5718   4.5719   5.1764

          k = 0.5688 0.1375 0.5688 (  1638 PWs)   bands (ev):

    -4.2063  -3.6921  -3.6920  -3.2551  -0.2379   0.2574   0.2575   0.8698
     2.4463   2.8789   2.8789   3.4129   4.5221   4.6050   4.6051   5.1531

          k = 0.5625 0.1250 0.5625 (  1632 PWs)   bands (ev):

    -4.1752  -3.7067  -3.7066  -3.2984  -0.1536   0.3126   0.3126   0.8735
     2.4076   2.8065   2.8065   3.2826   4.5442   4.6375   4.6376   5.1278

          k = 0.5563 0.1125 0.5563 (  1636 PWs)   bands (ev):

    -4.1424  -3.7201  -3.7200  -3.3441  -0.0666   0.3665   0.3665   0.8751
     2.3725   2.7354   2.7355   3.1560   4.5675   4.6687   4.6688   5.1008

          k = 0.5500 0.1000 0.5500 (  1638 PWs)   bands (ev):

    -4.1079  -3.7321  -3.7320  -3.3911   0.0224   0.4186   0.4186   0.8741
     2.3421   2.6671   2.6671   3.0340   4.5921   4.6981   4.6982   5.0726

          k = 0.5438 0.0875 0.5438 (  1636 PWs)   bands (ev):

    -4.0718  -3.7427  -3.7426  -3.4392   0.1123   0.4682   0.4682   0.8694
     2.3168   2.6025   2.6025   2.9177   4.6179   4.7252   4.7253   5.0431

          k = 0.5375 0.0750 0.5375 (  1636 PWs)   bands (ev):

    -4.0341  -3.7520  -3.7519  -3.4880   0.2019   0.5144   0.5145   0.8604
     2.2973   2.5428   2.5428   2.8082   4.6446   4.7497   4.7498   5.0125

          k = 0.5313 0.0625 0.5313 (  1634 PWs)   bands (ev):

    -3.9948  -3.7599  -3.7598  -3.5371   0.2900   0.5563   0.5564   0.8460
     2.2844   2.4891   2.4891   2.7065   4.6723   4.7714   4.7716   4.9814

          k = 0.5250 0.0500 0.5250 (  1636 PWs)   bands (ev):

    -3.9540  -3.7663  -3.7662  -3.5862   0.3753   0.5927   0.5928   0.8253
     2.2791   2.4428   2.4428   2.6140   4.7009   4.7894   4.7895   4.9499

          k = 0.5188 0.0375 0.5188 (  1636 PWs)   bands (ev):

    -3.9119  -3.7714  -3.7713  -3.6350   0.4565   0.6226   0.6226   0.7973
     2.2824   2.4051   2.4051   2.5317   4.7303   4.8037   4.8038   4.9181

          k = 0.5125 0.0250 0.5125 (  1636 PWs)   bands (ev):

    -3.8684  -3.7750  -3.7749  -3.6834   0.5324   0.6449   0.6449   0.7612
     2.2954   2.3772   2.3772   2.4606   4.7604   4.8141   4.8142   4.8862

          k = 0.5063 0.0125 0.5063 (  1633 PWs)   bands (ev):

    -3.8237  -3.7772  -3.7771  -3.7310   0.6017   0.6586   0.6587   0.7166
     2.3191   2.3600   2.3600   2.4013   4.7915   4.8204   4.8205   4.8543

          k = 0.5000 0.0000 0.5000 (  1628 PWs)   bands (ev):

    -3.7780  -3.7778  -3.7778  -3.7777   0.6633   0.6633   0.6633   0.6633
     2.3541   2.3542   2.3542   2.3542   4.8227   4.8227   4.8227   4.8228

     Writing all to output data dir ./outputs/Si.save/
 
     init_run     :      0.06s CPU      0.12s WALL (       1 calls)
     electrons    :     16.83s CPU     20.56s WALL (       1 calls)

     Called by init_run:
     wfcinit      :      0.00s CPU      0.00s WALL (       1 calls)
     wfcinit:atom :      0.01s CPU      0.01s WALL (     221 calls)
     wfcinit:wfcr :      1.07s CPU      1.23s WALL (     221 calls)
     potinit      :      0.00s CPU      0.00s WALL (       1 calls)
     hinit0       :      0.05s CPU      0.11s WALL (       1 calls)

     Called by electrons:
     c_bands      :     16.83s CPU     20.56s WALL (       1 calls)
     v_of_rho     :      0.00s CPU      0.00s WALL (       1 calls)
     v_h          :      0.00s CPU      0.00s WALL (       1 calls)
     v_xc         :      0.00s CPU      0.00s WALL (       1 calls)
     newd         :      0.00s CPU      0.01s WALL (       1 calls)

     Called by c_bands:
     init_us_2    :      0.02s CPU      0.02s WALL (     221 calls)
     init_us_2:cp :      0.02s CPU      0.02s WALL (     221 calls)
     cegterg      :     15.42s CPU     18.46s WALL (     351 calls)

     Called by sum_band:

     Called by *egterg:
     cdiaghg      :      5.69s CPU      6.70s WALL (    5049 calls)
     cegterg:over :      1.40s CPU      1.65s WALL (    4828 calls)
     cegterg:upda :      0.49s CPU      0.63s WALL (    4828 calls)
     cegterg:last :      1.14s CPU      1.60s WALL (    4228 calls)
     cdiaghg:chol :      0.32s CPU      0.37s WALL (    5049 calls)
     cdiaghg:inve :      0.22s CPU      0.25s WALL (    5049 calls)
     cdiaghg:para :      0.40s CPU      0.47s WALL (   10098 calls)
     h_psi        :      7.12s CPU      8.36s WALL (    5400 calls)
     s_psi        :      0.31s CPU      0.36s WALL (    5400 calls)
     g_psi        :      0.03s CPU      0.03s WALL (    4828 calls)

     Called by h_psi:
     h_psi:calbec :      0.52s CPU      0.61s WALL (    5400 calls)
     vloc_psi     :      6.22s CPU      7.32s WALL (    5400 calls)
     add_vuspsi   :      0.34s CPU      0.39s WALL (    5400 calls)

     General routines
     calbec       :      0.51s CPU      0.60s WALL (    5400 calls)
     fft          :      0.02s CPU      0.07s WALL (      12 calls)
     fftw         :      5.81s CPU      6.84s WALL (  147516 calls)
     davcio       :      0.01s CPU      0.47s WALL (     442 calls)
 
     Parallel routines
 
     PWSCF        :     17.38s CPU     21.32s WALL

 
   This run was terminated on:  12:12:18  29Nov2022            

=------------------------------------------------------------------------------=
   JOB DONE.
=------------------------------------------------------------------------------=
