
     Program PWSCF v.7.0 starts on 29Nov2022 at 12:12:19 

     This program is part of the open-source Quantum ESPRESSO suite
     for quantum simulation of materials; please cite
         "P. Giannozzi et al., J. Phys.:Condens. Matter 21 395502 (2009);
         "P. Giannozzi et al., J. Phys.:Condens. Matter 29 465901 (2017);
         "P. Giannozzi et al., J. Chem. Phys. 152 154105 (2020);
          URL http://www.quantum-espresso.org", 
     in publications or presentations arising from this work. More details at
     http://www.quantum-espresso.org/quote

     Parallel version (MPI), running on    14 processors

     MPI processes distributed on     1 nodes
     R & G space division:  proc/nbgrp/npool/nimage =      14
     2540 MiB available memory on the printing compute node when the environment starts
 
     Waiting for input...
     Reading input from standard input

     Current dimensions of program PWSCF are:
     Max number of different atomic species (ntypx) = 10
     Max number of k-points (npk) =  40000
     Max angular momentum in pseudopotentials (lmaxx) =  4

     Atomic positions and unit cell read from directory:
     ./outputs/Si.save/
 
     Found identity + (  0.0000 -0.5000 -0.5000) symmetry
     This is a supercell, fractional translations are disabled
     Message from routine setup:
     using ibrav=0 with symmetry is DISCOURAGED, use correct ibrav instead

     Subspace diagonalization in iterative solution of the eigenvalue problem:
     one sub-group per band group will be used
     scalapack distributed-memory algorithm (size of sub-group:  3*  3 procs)

 
     Parallelization info
     --------------------
     sticks:   dense  smooth     PW     G-vecs:    dense   smooth      PW
     Min          48      48     17                  938      938     209
     Max          49      49     18                  939      939     214
     Sum         673     673    241                13133    13133    2945
 
     Using Slab Decomposition
 


     bravais-lattice index     =            0
     lattice parameter (alat)  =      10.2630  a.u.
     unit-cell volume          =    1080.9899 (a.u.)^3
     number of atoms/cell      =            8
     number of atomic types    =            1
     number of electrons       =        32.00
     number of Kohn-Sham states=           16
     kinetic-energy cutoff     =      20.0000  Ry
     charge density cutoff     =      80.0000  Ry
     Exchange-correlation= PBESOL
                           (   1   4  10   8   0   0   0)

     celldm(1)=  10.262989  celldm(2)=   0.000000  celldm(3)=   0.000000
     celldm(4)=   0.000000  celldm(5)=   0.000000  celldm(6)=   0.000000

     crystal axes: (cart. coord. in units of alat)
               a(1) = (   1.000000   0.000000   0.000000 )  
               a(2) = (   0.000000   1.000000   0.000000 )  
               a(3) = (   0.000000   0.000000   1.000000 )  

     reciprocal axes: (cart. coord. in units 2 pi/alat)
               b(1) = (  1.000000  0.000000  0.000000 )  
               b(2) = (  0.000000  1.000000  0.000000 )  
               b(3) = (  0.000000  0.000000  1.000000 )  


     PseudoPot. # 1 for Si read from file:
     ./Si.UPF
     MD5 check sum: 0f72aaed442cfea083ff16d3bfdace30
     Pseudo is Ultrasoft + core correction, Zval =  4.0
     Generated using "atomic" code by A. Dal Corso  v.6.0 svn rev. 13079
     Using radial grid of 1141 points,  6 beta functions with: 
                l(1) =   0
                l(2) =   0
                l(3) =   1
                l(4) =   1
                l(5) =   2
                l(6) =   2
     Q(r) pseudized with 0 coefficients 


     atomic species   valence    mass     pseudopotential
        Si             4.00    28.08550     Si( 1.00)

     24 Sym. Ops. (no inversion) found


                                    s                        frac. trans.

      isym =  1     identity                                     

 cryst.   s( 1) = (     1          0          0      )
                  (     0          1          0      )
                  (     0          0          1      )

 cart.    s( 1) = (  1.0000000  0.0000000  0.0000000 )
                  (  0.0000000  1.0000000  0.0000000 )
                  (  0.0000000  0.0000000  1.0000000 )


      isym =  2     180 deg rotation - cart. axis [0,0,1]        

 cryst.   s( 2) = (    -1          0          0      )
                  (     0         -1          0      )
                  (     0          0          1      )

 cart.    s( 2) = ( -1.0000000  0.0000000  0.0000000 )
                  (  0.0000000 -1.0000000  0.0000000 )
                  (  0.0000000  0.0000000  1.0000000 )


      isym =  3     180 deg rotation - cart. axis [0,1,0]        

 cryst.   s( 3) = (    -1          0          0      )
                  (     0          1          0      )
                  (     0          0         -1      )

 cart.    s( 3) = ( -1.0000000  0.0000000  0.0000000 )
                  (  0.0000000  1.0000000  0.0000000 )
                  (  0.0000000  0.0000000 -1.0000000 )


      isym =  4     180 deg rotation - cart. axis [1,0,0]        

 cryst.   s( 4) = (     1          0          0      )
                  (     0         -1          0      )
                  (     0          0         -1      )

 cart.    s( 4) = (  1.0000000  0.0000000  0.0000000 )
                  (  0.0000000 -1.0000000  0.0000000 )
                  (  0.0000000  0.0000000 -1.0000000 )


      isym =  5     120 deg rotation - cart. axis [-1,-1,-1]     

 cryst.   s( 5) = (     0          0          1      )
                  (     1          0          0      )
                  (     0          1          0      )

 cart.    s( 5) = (  0.0000000  1.0000000  0.0000000 )
                  (  0.0000000  0.0000000  1.0000000 )
                  (  1.0000000  0.0000000  0.0000000 )


      isym =  6     120 deg rotation - cart. axis [-1,1,1]       

 cryst.   s( 6) = (     0          0         -1      )
                  (    -1          0          0      )
                  (     0          1          0      )

 cart.    s( 6) = (  0.0000000 -1.0000000  0.0000000 )
                  (  0.0000000  0.0000000  1.0000000 )
                  ( -1.0000000  0.0000000  0.0000000 )


      isym =  7     120 deg rotation - cart. axis [1,1,-1]       

 cryst.   s( 7) = (     0          0         -1      )
                  (     1          0          0      )
                  (     0         -1          0      )

 cart.    s( 7) = (  0.0000000  1.0000000  0.0000000 )
                  (  0.0000000  0.0000000 -1.0000000 )
                  ( -1.0000000  0.0000000  0.0000000 )


      isym =  8     120 deg rotation - cart. axis [1,-1,1]       

 cryst.   s( 8) = (     0          0          1      )
                  (    -1          0          0      )
                  (     0         -1          0      )

 cart.    s( 8) = (  0.0000000 -1.0000000  0.0000000 )
                  (  0.0000000  0.0000000 -1.0000000 )
                  (  1.0000000  0.0000000  0.0000000 )


      isym =  9     120 deg rotation - cart. axis [1,1,1]        

 cryst.   s( 9) = (     0          1          0      )
                  (     0          0          1      )
                  (     1          0          0      )

 cart.    s( 9) = (  0.0000000  0.0000000  1.0000000 )
                  (  1.0000000  0.0000000  0.0000000 )
                  (  0.0000000  1.0000000  0.0000000 )


      isym = 10     120 deg rotation - cart. axis [-1,1,-1]      

 cryst.   s(10) = (     0         -1          0      )
                  (     0          0         -1      )
                  (     1          0          0      )

 cart.    s(10) = (  0.0000000  0.0000000  1.0000000 )
                  ( -1.0000000  0.0000000  0.0000000 )
                  (  0.0000000 -1.0000000  0.0000000 )


      isym = 11     120 deg rotation - cart. axis [1,-1,-1]      

 cryst.   s(11) = (     0         -1          0      )
                  (     0          0          1      )
                  (    -1          0          0      )

 cart.    s(11) = (  0.0000000  0.0000000 -1.0000000 )
                  ( -1.0000000  0.0000000  0.0000000 )
                  (  0.0000000  1.0000000  0.0000000 )


      isym = 12     120 deg rotation - cart. axis [-1,-1,1]      

 cryst.   s(12) = (     0          1          0      )
                  (     0          0         -1      )
                  (    -1          0          0      )

 cart.    s(12) = (  0.0000000  0.0000000 -1.0000000 )
                  (  1.0000000  0.0000000  0.0000000 )
                  (  0.0000000 -1.0000000  0.0000000 )


      isym = 13     inv. 180 deg rotation - cart. axis [1,1,0]   

 cryst.   s(13) = (     0         -1          0      )
                  (    -1          0          0      )
                  (     0          0          1      )

 cart.    s(13) = (  0.0000000 -1.0000000  0.0000000 )
                  ( -1.0000000  0.0000000  0.0000000 )
                  (  0.0000000  0.0000000  1.0000000 )


      isym = 14     inv. 180 deg rotation - cart. axis [1,-1,0]  

 cryst.   s(14) = (     0          1          0      )
                  (     1          0          0      )
                  (     0          0          1      )

 cart.    s(14) = (  0.0000000  1.0000000  0.0000000 )
                  (  1.0000000  0.0000000  0.0000000 )
                  (  0.0000000  0.0000000  1.0000000 )


      isym = 15     inv.  90 deg rotation - cart. axis [0,0,-1]  

 cryst.   s(15) = (     0          1          0      )
                  (    -1          0          0      )
                  (     0          0         -1      )

 cart.    s(15) = (  0.0000000 -1.0000000  0.0000000 )
                  (  1.0000000  0.0000000  0.0000000 )
                  (  0.0000000  0.0000000 -1.0000000 )


      isym = 16     inv.  90 deg rotation - cart. axis [0,0,1]   

 cryst.   s(16) = (     0         -1          0      )
                  (     1          0          0      )
                  (     0          0         -1      )

 cart.    s(16) = (  0.0000000  1.0000000  0.0000000 )
                  ( -1.0000000  0.0000000  0.0000000 )
                  (  0.0000000  0.0000000 -1.0000000 )


      isym = 17     inv. 180 deg rotation - cart. axis [1,0,1]   

 cryst.   s(17) = (     0          0         -1      )
                  (     0          1          0      )
                  (    -1          0          0      )

 cart.    s(17) = (  0.0000000  0.0000000 -1.0000000 )
                  (  0.0000000  1.0000000  0.0000000 )
                  ( -1.0000000  0.0000000  0.0000000 )


      isym = 18     inv. 180 deg rotation - cart. axis [-1,0,1]  

 cryst.   s(18) = (     0          0          1      )
                  (     0          1          0      )
                  (     1          0          0      )

 cart.    s(18) = (  0.0000000  0.0000000  1.0000000 )
                  (  0.0000000  1.0000000  0.0000000 )
                  (  1.0000000  0.0000000  0.0000000 )


      isym = 19     inv.  90 deg rotation - cart. axis [0,1,0]   

 cryst.   s(19) = (     0          0          1      )
                  (     0         -1          0      )
                  (    -1          0          0      )

 cart.    s(19) = (  0.0000000  0.0000000 -1.0000000 )
                  (  0.0000000 -1.0000000  0.0000000 )
                  (  1.0000000  0.0000000  0.0000000 )


      isym = 20     inv.  90 deg rotation - cart. axis [0,-1,0]  

 cryst.   s(20) = (     0          0         -1      )
                  (     0         -1          0      )
                  (     1          0          0      )

 cart.    s(20) = (  0.0000000  0.0000000  1.0000000 )
                  (  0.0000000 -1.0000000  0.0000000 )
                  ( -1.0000000  0.0000000  0.0000000 )


      isym = 21     inv. 180 deg rotation - cart. axis [0,1,1]   

 cryst.   s(21) = (     1          0          0      )
                  (     0          0         -1      )
                  (     0         -1          0      )

 cart.    s(21) = (  1.0000000  0.0000000  0.0000000 )
                  (  0.0000000  0.0000000 -1.0000000 )
                  (  0.0000000 -1.0000000  0.0000000 )


      isym = 22     inv. 180 deg rotation - cart. axis [0,1,-1]  

 cryst.   s(22) = (     1          0          0      )
                  (     0          0          1      )
                  (     0          1          0      )

 cart.    s(22) = (  1.0000000  0.0000000  0.0000000 )
                  (  0.0000000  0.0000000  1.0000000 )
                  (  0.0000000  1.0000000  0.0000000 )


      isym = 23     inv.  90 deg rotation - cart. axis [-1,0,0]  

 cryst.   s(23) = (    -1          0          0      )
                  (     0          0          1      )
                  (     0         -1          0      )

 cart.    s(23) = ( -1.0000000  0.0000000  0.0000000 )
                  (  0.0000000  0.0000000 -1.0000000 )
                  (  0.0000000  1.0000000  0.0000000 )


      isym = 24     inv.  90 deg rotation - cart. axis [1,0,0]   

 cryst.   s(24) = (    -1          0          0      )
                  (     0          0         -1      )
                  (     0          1          0      )

 cart.    s(24) = ( -1.0000000  0.0000000  0.0000000 )
                  (  0.0000000  0.0000000  1.0000000 )
                  (  0.0000000 -1.0000000  0.0000000 )


   Cartesian axes

     site n.     atom                  positions (alat units)
         1           Si  tau(   1) = (   0.0000000   0.0000000   0.0000000  )
         2           Si  tau(   2) = (   0.0000000   0.5000000   0.5000000  )
         3           Si  tau(   3) = (   0.2500000   0.2500000   0.2500000  )
         4           Si  tau(   4) = (   0.5000000   0.0000000   0.5000000  )
         5           Si  tau(   5) = (   0.2500000   0.7500000   0.7500000  )
         6           Si  tau(   6) = (   0.7500000   0.7500000   0.2500000  )
         7           Si  tau(   7) = (   0.7500000   0.2500000   0.7500000  )
         8           Si  tau(   8) = (   0.5000000   0.5000000   0.0000000  )

   Crystallographic axes

     site n.     atom                  positions (cryst. coord.)
         1           Si  tau(   1) = (  0.0000000  0.0000000  0.0000000  )
         2           Si  tau(   2) = (  0.0000000  0.5000000  0.5000000  )
         3           Si  tau(   3) = (  0.2500000  0.2500000  0.2500000  )
         4           Si  tau(   4) = (  0.5000000  0.0000000  0.5000000  )
         5           Si  tau(   5) = (  0.2500000  0.7500000  0.7500000  )
         6           Si  tau(   6) = (  0.7500000  0.7500000  0.2500000  )
         7           Si  tau(   7) = (  0.7500000  0.2500000  0.7500000  )
         8           Si  tau(   8) = (  0.5000000  0.5000000  0.0000000  )

     number of k points=  1000
                       cart. coord. in units 2pi/alat
        k(    1) = (   0.0000000   0.0000000   0.0000000), wk =   0.0020000
        k(    2) = (   0.1000000   0.0000000   0.0000000), wk =   0.0020000
        k(    3) = (   0.2000000   0.0000000   0.0000000), wk =   0.0020000
        k(    4) = (   0.3000000   0.0000000   0.0000000), wk =   0.0020000
        k(    5) = (   0.4000000   0.0000000   0.0000000), wk =   0.0020000
        k(    6) = (   0.5000000   0.0000000   0.0000000), wk =   0.0020000
        k(    7) = (   0.6000000   0.0000000   0.0000000), wk =   0.0020000
        k(    8) = (   0.7000000   0.0000000   0.0000000), wk =   0.0020000
        k(    9) = (   0.8000000   0.0000000   0.0000000), wk =   0.0020000
        k(   10) = (   0.9000000   0.0000000   0.0000000), wk =   0.0020000
        k(   11) = (   0.0000000   0.1000000   0.0000000), wk =   0.0020000
        k(   12) = (   0.1000000   0.1000000   0.0000000), wk =   0.0020000
        k(   13) = (   0.2000000   0.1000000   0.0000000), wk =   0.0020000
        k(   14) = (   0.3000000   0.1000000   0.0000000), wk =   0.0020000
        k(   15) = (   0.4000000   0.1000000   0.0000000), wk =   0.0020000
        k(   16) = (   0.5000000   0.1000000   0.0000000), wk =   0.0020000
        k(   17) = (   0.6000000   0.1000000   0.0000000), wk =   0.0020000
        k(   18) = (   0.7000000   0.1000000   0.0000000), wk =   0.0020000
        k(   19) = (   0.8000000   0.1000000   0.0000000), wk =   0.0020000
        k(   20) = (   0.9000000   0.1000000   0.0000000), wk =   0.0020000
        k(   21) = (   0.0000000   0.2000000   0.0000000), wk =   0.0020000
        k(   22) = (   0.1000000   0.2000000   0.0000000), wk =   0.0020000
        k(   23) = (   0.2000000   0.2000000   0.0000000), wk =   0.0020000
        k(   24) = (   0.3000000   0.2000000   0.0000000), wk =   0.0020000
        k(   25) = (   0.4000000   0.2000000   0.0000000), wk =   0.0020000
        k(   26) = (   0.5000000   0.2000000   0.0000000), wk =   0.0020000
        k(   27) = (   0.6000000   0.2000000   0.0000000), wk =   0.0020000
        k(   28) = (   0.7000000   0.2000000   0.0000000), wk =   0.0020000
        k(   29) = (   0.8000000   0.2000000   0.0000000), wk =   0.0020000
        k(   30) = (   0.9000000   0.2000000   0.0000000), wk =   0.0020000
        k(   31) = (   0.0000000   0.3000000   0.0000000), wk =   0.0020000
        k(   32) = (   0.1000000   0.3000000   0.0000000), wk =   0.0020000
        k(   33) = (   0.2000000   0.3000000   0.0000000), wk =   0.0020000
        k(   34) = (   0.3000000   0.3000000   0.0000000), wk =   0.0020000
        k(   35) = (   0.4000000   0.3000000   0.0000000), wk =   0.0020000
        k(   36) = (   0.5000000   0.3000000   0.0000000), wk =   0.0020000
        k(   37) = (   0.6000000   0.3000000   0.0000000), wk =   0.0020000
        k(   38) = (   0.7000000   0.3000000   0.0000000), wk =   0.0020000
        k(   39) = (   0.8000000   0.3000000   0.0000000), wk =   0.0020000
        k(   40) = (   0.9000000   0.3000000   0.0000000), wk =   0.0020000
        k(   41) = (   0.0000000   0.4000000   0.0000000), wk =   0.0020000
        k(   42) = (   0.1000000   0.4000000   0.0000000), wk =   0.0020000
        k(   43) = (   0.2000000   0.4000000   0.0000000), wk =   0.0020000
        k(   44) = (   0.3000000   0.4000000   0.0000000), wk =   0.0020000
        k(   45) = (   0.4000000   0.4000000   0.0000000), wk =   0.0020000
        k(   46) = (   0.5000000   0.4000000   0.0000000), wk =   0.0020000
        k(   47) = (   0.6000000   0.4000000   0.0000000), wk =   0.0020000
        k(   48) = (   0.7000000   0.4000000   0.0000000), wk =   0.0020000
        k(   49) = (   0.8000000   0.4000000   0.0000000), wk =   0.0020000
        k(   50) = (   0.9000000   0.4000000   0.0000000), wk =   0.0020000
        k(   51) = (   0.0000000   0.5000000   0.0000000), wk =   0.0020000
        k(   52) = (   0.1000000   0.5000000   0.0000000), wk =   0.0020000
        k(   53) = (   0.2000000   0.5000000   0.0000000), wk =   0.0020000
        k(   54) = (   0.3000000   0.5000000   0.0000000), wk =   0.0020000
        k(   55) = (   0.4000000   0.5000000   0.0000000), wk =   0.0020000
        k(   56) = (   0.5000000   0.5000000   0.0000000), wk =   0.0020000
        k(   57) = (   0.6000000   0.5000000   0.0000000), wk =   0.0020000
        k(   58) = (   0.7000000   0.5000000   0.0000000), wk =   0.0020000
        k(   59) = (   0.8000000   0.5000000   0.0000000), wk =   0.0020000
        k(   60) = (   0.9000000   0.5000000   0.0000000), wk =   0.0020000
        k(   61) = (   0.0000000   0.6000000   0.0000000), wk =   0.0020000
        k(   62) = (   0.1000000   0.6000000   0.0000000), wk =   0.0020000
        k(   63) = (   0.2000000   0.6000000   0.0000000), wk =   0.0020000
        k(   64) = (   0.3000000   0.6000000   0.0000000), wk =   0.0020000
        k(   65) = (   0.4000000   0.6000000   0.0000000), wk =   0.0020000
        k(   66) = (   0.5000000   0.6000000   0.0000000), wk =   0.0020000
        k(   67) = (   0.6000000   0.6000000   0.0000000), wk =   0.0020000
        k(   68) = (   0.7000000   0.6000000   0.0000000), wk =   0.0020000
        k(   69) = (   0.8000000   0.6000000   0.0000000), wk =   0.0020000
        k(   70) = (   0.9000000   0.6000000   0.0000000), wk =   0.0020000
        k(   71) = (   0.0000000   0.7000000   0.0000000), wk =   0.0020000
        k(   72) = (   0.1000000   0.7000000   0.0000000), wk =   0.0020000
        k(   73) = (   0.2000000   0.7000000   0.0000000), wk =   0.0020000
        k(   74) = (   0.3000000   0.7000000   0.0000000), wk =   0.0020000
        k(   75) = (   0.4000000   0.7000000   0.0000000), wk =   0.0020000
        k(   76) = (   0.5000000   0.7000000   0.0000000), wk =   0.0020000
        k(   77) = (   0.6000000   0.7000000   0.0000000), wk =   0.0020000
        k(   78) = (   0.7000000   0.7000000   0.0000000), wk =   0.0020000
        k(   79) = (   0.8000000   0.7000000   0.0000000), wk =   0.0020000
        k(   80) = (   0.9000000   0.7000000   0.0000000), wk =   0.0020000
        k(   81) = (   0.0000000   0.8000000   0.0000000), wk =   0.0020000
        k(   82) = (   0.1000000   0.8000000   0.0000000), wk =   0.0020000
        k(   83) = (   0.2000000   0.8000000   0.0000000), wk =   0.0020000
        k(   84) = (   0.3000000   0.8000000   0.0000000), wk =   0.0020000
        k(   85) = (   0.4000000   0.8000000   0.0000000), wk =   0.0020000
        k(   86) = (   0.5000000   0.8000000   0.0000000), wk =   0.0020000
        k(   87) = (   0.6000000   0.8000000   0.0000000), wk =   0.0020000
        k(   88) = (   0.7000000   0.8000000   0.0000000), wk =   0.0020000
        k(   89) = (   0.8000000   0.8000000   0.0000000), wk =   0.0020000
        k(   90) = (   0.9000000   0.8000000   0.0000000), wk =   0.0020000
        k(   91) = (   0.0000000   0.9000000   0.0000000), wk =   0.0020000
        k(   92) = (   0.1000000   0.9000000   0.0000000), wk =   0.0020000
        k(   93) = (   0.2000000   0.9000000   0.0000000), wk =   0.0020000
        k(   94) = (   0.3000000   0.9000000   0.0000000), wk =   0.0020000
        k(   95) = (   0.4000000   0.9000000   0.0000000), wk =   0.0020000
        k(   96) = (   0.5000000   0.9000000   0.0000000), wk =   0.0020000
        k(   97) = (   0.6000000   0.9000000   0.0000000), wk =   0.0020000
        k(   98) = (   0.7000000   0.9000000   0.0000000), wk =   0.0020000
        k(   99) = (   0.8000000   0.9000000   0.0000000), wk =   0.0020000
        k(  100) = (   0.9000000   0.9000000   0.0000000), wk =   0.0020000
        k(  101) = (   0.0000000   0.0000000   0.1000000), wk =   0.0020000
        k(  102) = (   0.1000000   0.0000000   0.1000000), wk =   0.0020000
        k(  103) = (   0.2000000   0.0000000   0.1000000), wk =   0.0020000
        k(  104) = (   0.3000000   0.0000000   0.1000000), wk =   0.0020000
        k(  105) = (   0.4000000   0.0000000   0.1000000), wk =   0.0020000
        k(  106) = (   0.5000000   0.0000000   0.1000000), wk =   0.0020000
        k(  107) = (   0.6000000   0.0000000   0.1000000), wk =   0.0020000
        k(  108) = (   0.7000000   0.0000000   0.1000000), wk =   0.0020000
        k(  109) = (   0.8000000   0.0000000   0.1000000), wk =   0.0020000
        k(  110) = (   0.9000000   0.0000000   0.1000000), wk =   0.0020000
        k(  111) = (   0.0000000   0.1000000   0.1000000), wk =   0.0020000
        k(  112) = (   0.1000000   0.1000000   0.1000000), wk =   0.0020000
        k(  113) = (   0.2000000   0.1000000   0.1000000), wk =   0.0020000
        k(  114) = (   0.3000000   0.1000000   0.1000000), wk =   0.0020000
        k(  115) = (   0.4000000   0.1000000   0.1000000), wk =   0.0020000
        k(  116) = (   0.5000000   0.1000000   0.1000000), wk =   0.0020000
        k(  117) = (   0.6000000   0.1000000   0.1000000), wk =   0.0020000
        k(  118) = (   0.7000000   0.1000000   0.1000000), wk =   0.0020000
        k(  119) = (   0.8000000   0.1000000   0.1000000), wk =   0.0020000
        k(  120) = (   0.9000000   0.1000000   0.1000000), wk =   0.0020000
        k(  121) = (   0.0000000   0.2000000   0.1000000), wk =   0.0020000
        k(  122) = (   0.1000000   0.2000000   0.1000000), wk =   0.0020000
        k(  123) = (   0.2000000   0.2000000   0.1000000), wk =   0.0020000
        k(  124) = (   0.3000000   0.2000000   0.1000000), wk =   0.0020000
        k(  125) = (   0.4000000   0.2000000   0.1000000), wk =   0.0020000
        k(  126) = (   0.5000000   0.2000000   0.1000000), wk =   0.0020000
        k(  127) = (   0.6000000   0.2000000   0.1000000), wk =   0.0020000
        k(  128) = (   0.7000000   0.2000000   0.1000000), wk =   0.0020000
        k(  129) = (   0.8000000   0.2000000   0.1000000), wk =   0.0020000
        k(  130) = (   0.9000000   0.2000000   0.1000000), wk =   0.0020000
        k(  131) = (   0.0000000   0.3000000   0.1000000), wk =   0.0020000
        k(  132) = (   0.1000000   0.3000000   0.1000000), wk =   0.0020000
        k(  133) = (   0.2000000   0.3000000   0.1000000), wk =   0.0020000
        k(  134) = (   0.3000000   0.3000000   0.1000000), wk =   0.0020000
        k(  135) = (   0.4000000   0.3000000   0.1000000), wk =   0.0020000
        k(  136) = (   0.5000000   0.3000000   0.1000000), wk =   0.0020000
        k(  137) = (   0.6000000   0.3000000   0.1000000), wk =   0.0020000
        k(  138) = (   0.7000000   0.3000000   0.1000000), wk =   0.0020000
        k(  139) = (   0.8000000   0.3000000   0.1000000), wk =   0.0020000
        k(  140) = (   0.9000000   0.3000000   0.1000000), wk =   0.0020000
        k(  141) = (   0.0000000   0.4000000   0.1000000), wk =   0.0020000
        k(  142) = (   0.1000000   0.4000000   0.1000000), wk =   0.0020000
        k(  143) = (   0.2000000   0.4000000   0.1000000), wk =   0.0020000
        k(  144) = (   0.3000000   0.4000000   0.1000000), wk =   0.0020000
        k(  145) = (   0.4000000   0.4000000   0.1000000), wk =   0.0020000
        k(  146) = (   0.5000000   0.4000000   0.1000000), wk =   0.0020000
        k(  147) = (   0.6000000   0.4000000   0.1000000), wk =   0.0020000
        k(  148) = (   0.7000000   0.4000000   0.1000000), wk =   0.0020000
        k(  149) = (   0.8000000   0.4000000   0.1000000), wk =   0.0020000
        k(  150) = (   0.9000000   0.4000000   0.1000000), wk =   0.0020000
        k(  151) = (   0.0000000   0.5000000   0.1000000), wk =   0.0020000
        k(  152) = (   0.1000000   0.5000000   0.1000000), wk =   0.0020000
        k(  153) = (   0.2000000   0.5000000   0.1000000), wk =   0.0020000
        k(  154) = (   0.3000000   0.5000000   0.1000000), wk =   0.0020000
        k(  155) = (   0.4000000   0.5000000   0.1000000), wk =   0.0020000
        k(  156) = (   0.5000000   0.5000000   0.1000000), wk =   0.0020000
        k(  157) = (   0.6000000   0.5000000   0.1000000), wk =   0.0020000
        k(  158) = (   0.7000000   0.5000000   0.1000000), wk =   0.0020000
        k(  159) = (   0.8000000   0.5000000   0.1000000), wk =   0.0020000
        k(  160) = (   0.9000000   0.5000000   0.1000000), wk =   0.0020000
        k(  161) = (   0.0000000   0.6000000   0.1000000), wk =   0.0020000
        k(  162) = (   0.1000000   0.6000000   0.1000000), wk =   0.0020000
        k(  163) = (   0.2000000   0.6000000   0.1000000), wk =   0.0020000
        k(  164) = (   0.3000000   0.6000000   0.1000000), wk =   0.0020000
        k(  165) = (   0.4000000   0.6000000   0.1000000), wk =   0.0020000
        k(  166) = (   0.5000000   0.6000000   0.1000000), wk =   0.0020000
        k(  167) = (   0.6000000   0.6000000   0.1000000), wk =   0.0020000
        k(  168) = (   0.7000000   0.6000000   0.1000000), wk =   0.0020000
        k(  169) = (   0.8000000   0.6000000   0.1000000), wk =   0.0020000
        k(  170) = (   0.9000000   0.6000000   0.1000000), wk =   0.0020000
        k(  171) = (   0.0000000   0.7000000   0.1000000), wk =   0.0020000
        k(  172) = (   0.1000000   0.7000000   0.1000000), wk =   0.0020000
        k(  173) = (   0.2000000   0.7000000   0.1000000), wk =   0.0020000
        k(  174) = (   0.3000000   0.7000000   0.1000000), wk =   0.0020000
        k(  175) = (   0.4000000   0.7000000   0.1000000), wk =   0.0020000
        k(  176) = (   0.5000000   0.7000000   0.1000000), wk =   0.0020000
        k(  177) = (   0.6000000   0.7000000   0.1000000), wk =   0.0020000
        k(  178) = (   0.7000000   0.7000000   0.1000000), wk =   0.0020000
        k(  179) = (   0.8000000   0.7000000   0.1000000), wk =   0.0020000
        k(  180) = (   0.9000000   0.7000000   0.1000000), wk =   0.0020000
        k(  181) = (   0.0000000   0.8000000   0.1000000), wk =   0.0020000
        k(  182) = (   0.1000000   0.8000000   0.1000000), wk =   0.0020000
        k(  183) = (   0.2000000   0.8000000   0.1000000), wk =   0.0020000
        k(  184) = (   0.3000000   0.8000000   0.1000000), wk =   0.0020000
        k(  185) = (   0.4000000   0.8000000   0.1000000), wk =   0.0020000
        k(  186) = (   0.5000000   0.8000000   0.1000000), wk =   0.0020000
        k(  187) = (   0.6000000   0.8000000   0.1000000), wk =   0.0020000
        k(  188) = (   0.7000000   0.8000000   0.1000000), wk =   0.0020000
        k(  189) = (   0.8000000   0.8000000   0.1000000), wk =   0.0020000
        k(  190) = (   0.9000000   0.8000000   0.1000000), wk =   0.0020000
        k(  191) = (   0.0000000   0.9000000   0.1000000), wk =   0.0020000
        k(  192) = (   0.1000000   0.9000000   0.1000000), wk =   0.0020000
        k(  193) = (   0.2000000   0.9000000   0.1000000), wk =   0.0020000
        k(  194) = (   0.3000000   0.9000000   0.1000000), wk =   0.0020000
        k(  195) = (   0.4000000   0.9000000   0.1000000), wk =   0.0020000
        k(  196) = (   0.5000000   0.9000000   0.1000000), wk =   0.0020000
        k(  197) = (   0.6000000   0.9000000   0.1000000), wk =   0.0020000
        k(  198) = (   0.7000000   0.9000000   0.1000000), wk =   0.0020000
        k(  199) = (   0.8000000   0.9000000   0.1000000), wk =   0.0020000
        k(  200) = (   0.9000000   0.9000000   0.1000000), wk =   0.0020000
        k(  201) = (   0.0000000   0.0000000   0.2000000), wk =   0.0020000
        k(  202) = (   0.1000000   0.0000000   0.2000000), wk =   0.0020000
        k(  203) = (   0.2000000   0.0000000   0.2000000), wk =   0.0020000
        k(  204) = (   0.3000000   0.0000000   0.2000000), wk =   0.0020000
        k(  205) = (   0.4000000   0.0000000   0.2000000), wk =   0.0020000
        k(  206) = (   0.5000000   0.0000000   0.2000000), wk =   0.0020000
        k(  207) = (   0.6000000   0.0000000   0.2000000), wk =   0.0020000
        k(  208) = (   0.7000000   0.0000000   0.2000000), wk =   0.0020000
        k(  209) = (   0.8000000   0.0000000   0.2000000), wk =   0.0020000
        k(  210) = (   0.9000000   0.0000000   0.2000000), wk =   0.0020000
        k(  211) = (   0.0000000   0.1000000   0.2000000), wk =   0.0020000
        k(  212) = (   0.1000000   0.1000000   0.2000000), wk =   0.0020000
        k(  213) = (   0.2000000   0.1000000   0.2000000), wk =   0.0020000
        k(  214) = (   0.3000000   0.1000000   0.2000000), wk =   0.0020000
        k(  215) = (   0.4000000   0.1000000   0.2000000), wk =   0.0020000
        k(  216) = (   0.5000000   0.1000000   0.2000000), wk =   0.0020000
        k(  217) = (   0.6000000   0.1000000   0.2000000), wk =   0.0020000
        k(  218) = (   0.7000000   0.1000000   0.2000000), wk =   0.0020000
        k(  219) = (   0.8000000   0.1000000   0.2000000), wk =   0.0020000
        k(  220) = (   0.9000000   0.1000000   0.2000000), wk =   0.0020000
        k(  221) = (   0.0000000   0.2000000   0.2000000), wk =   0.0020000
        k(  222) = (   0.1000000   0.2000000   0.2000000), wk =   0.0020000
        k(  223) = (   0.2000000   0.2000000   0.2000000), wk =   0.0020000
        k(  224) = (   0.3000000   0.2000000   0.2000000), wk =   0.0020000
        k(  225) = (   0.4000000   0.2000000   0.2000000), wk =   0.0020000
        k(  226) = (   0.5000000   0.2000000   0.2000000), wk =   0.0020000
        k(  227) = (   0.6000000   0.2000000   0.2000000), wk =   0.0020000
        k(  228) = (   0.7000000   0.2000000   0.2000000), wk =   0.0020000
        k(  229) = (   0.8000000   0.2000000   0.2000000), wk =   0.0020000
        k(  230) = (   0.9000000   0.2000000   0.2000000), wk =   0.0020000
        k(  231) = (   0.0000000   0.3000000   0.2000000), wk =   0.0020000
        k(  232) = (   0.1000000   0.3000000   0.2000000), wk =   0.0020000
        k(  233) = (   0.2000000   0.3000000   0.2000000), wk =   0.0020000
        k(  234) = (   0.3000000   0.3000000   0.2000000), wk =   0.0020000
        k(  235) = (   0.4000000   0.3000000   0.2000000), wk =   0.0020000
        k(  236) = (   0.5000000   0.3000000   0.2000000), wk =   0.0020000
        k(  237) = (   0.6000000   0.3000000   0.2000000), wk =   0.0020000
        k(  238) = (   0.7000000   0.3000000   0.2000000), wk =   0.0020000
        k(  239) = (   0.8000000   0.3000000   0.2000000), wk =   0.0020000
        k(  240) = (   0.9000000   0.3000000   0.2000000), wk =   0.0020000
        k(  241) = (   0.0000000   0.4000000   0.2000000), wk =   0.0020000
        k(  242) = (   0.1000000   0.4000000   0.2000000), wk =   0.0020000
        k(  243) = (   0.2000000   0.4000000   0.2000000), wk =   0.0020000
        k(  244) = (   0.3000000   0.4000000   0.2000000), wk =   0.0020000
        k(  245) = (   0.4000000   0.4000000   0.2000000), wk =   0.0020000
        k(  246) = (   0.5000000   0.4000000   0.2000000), wk =   0.0020000
        k(  247) = (   0.6000000   0.4000000   0.2000000), wk =   0.0020000
        k(  248) = (   0.7000000   0.4000000   0.2000000), wk =   0.0020000
        k(  249) = (   0.8000000   0.4000000   0.2000000), wk =   0.0020000
        k(  250) = (   0.9000000   0.4000000   0.2000000), wk =   0.0020000
        k(  251) = (   0.0000000   0.5000000   0.2000000), wk =   0.0020000
        k(  252) = (   0.1000000   0.5000000   0.2000000), wk =   0.0020000
        k(  253) = (   0.2000000   0.5000000   0.2000000), wk =   0.0020000
        k(  254) = (   0.3000000   0.5000000   0.2000000), wk =   0.0020000
        k(  255) = (   0.4000000   0.5000000   0.2000000), wk =   0.0020000
        k(  256) = (   0.5000000   0.5000000   0.2000000), wk =   0.0020000
        k(  257) = (   0.6000000   0.5000000   0.2000000), wk =   0.0020000
        k(  258) = (   0.7000000   0.5000000   0.2000000), wk =   0.0020000
        k(  259) = (   0.8000000   0.5000000   0.2000000), wk =   0.0020000
        k(  260) = (   0.9000000   0.5000000   0.2000000), wk =   0.0020000
        k(  261) = (   0.0000000   0.6000000   0.2000000), wk =   0.0020000
        k(  262) = (   0.1000000   0.6000000   0.2000000), wk =   0.0020000
        k(  263) = (   0.2000000   0.6000000   0.2000000), wk =   0.0020000
        k(  264) = (   0.3000000   0.6000000   0.2000000), wk =   0.0020000
        k(  265) = (   0.4000000   0.6000000   0.2000000), wk =   0.0020000
        k(  266) = (   0.5000000   0.6000000   0.2000000), wk =   0.0020000
        k(  267) = (   0.6000000   0.6000000   0.2000000), wk =   0.0020000
        k(  268) = (   0.7000000   0.6000000   0.2000000), wk =   0.0020000
        k(  269) = (   0.8000000   0.6000000   0.2000000), wk =   0.0020000
        k(  270) = (   0.9000000   0.6000000   0.2000000), wk =   0.0020000
        k(  271) = (   0.0000000   0.7000000   0.2000000), wk =   0.0020000
        k(  272) = (   0.1000000   0.7000000   0.2000000), wk =   0.0020000
        k(  273) = (   0.2000000   0.7000000   0.2000000), wk =   0.0020000
        k(  274) = (   0.3000000   0.7000000   0.2000000), wk =   0.0020000
        k(  275) = (   0.4000000   0.7000000   0.2000000), wk =   0.0020000
        k(  276) = (   0.5000000   0.7000000   0.2000000), wk =   0.0020000
        k(  277) = (   0.6000000   0.7000000   0.2000000), wk =   0.0020000
        k(  278) = (   0.7000000   0.7000000   0.2000000), wk =   0.0020000
        k(  279) = (   0.8000000   0.7000000   0.2000000), wk =   0.0020000
        k(  280) = (   0.9000000   0.7000000   0.2000000), wk =   0.0020000
        k(  281) = (   0.0000000   0.8000000   0.2000000), wk =   0.0020000
        k(  282) = (   0.1000000   0.8000000   0.2000000), wk =   0.0020000
        k(  283) = (   0.2000000   0.8000000   0.2000000), wk =   0.0020000
        k(  284) = (   0.3000000   0.8000000   0.2000000), wk =   0.0020000
        k(  285) = (   0.4000000   0.8000000   0.2000000), wk =   0.0020000
        k(  286) = (   0.5000000   0.8000000   0.2000000), wk =   0.0020000
        k(  287) = (   0.6000000   0.8000000   0.2000000), wk =   0.0020000
        k(  288) = (   0.7000000   0.8000000   0.2000000), wk =   0.0020000
        k(  289) = (   0.8000000   0.8000000   0.2000000), wk =   0.0020000
        k(  290) = (   0.9000000   0.8000000   0.2000000), wk =   0.0020000
        k(  291) = (   0.0000000   0.9000000   0.2000000), wk =   0.0020000
        k(  292) = (   0.1000000   0.9000000   0.2000000), wk =   0.0020000
        k(  293) = (   0.2000000   0.9000000   0.2000000), wk =   0.0020000
        k(  294) = (   0.3000000   0.9000000   0.2000000), wk =   0.0020000
        k(  295) = (   0.4000000   0.9000000   0.2000000), wk =   0.0020000
        k(  296) = (   0.5000000   0.9000000   0.2000000), wk =   0.0020000
        k(  297) = (   0.6000000   0.9000000   0.2000000), wk =   0.0020000
        k(  298) = (   0.7000000   0.9000000   0.2000000), wk =   0.0020000
        k(  299) = (   0.8000000   0.9000000   0.2000000), wk =   0.0020000
        k(  300) = (   0.9000000   0.9000000   0.2000000), wk =   0.0020000
        k(  301) = (   0.0000000   0.0000000   0.3000000), wk =   0.0020000
        k(  302) = (   0.1000000   0.0000000   0.3000000), wk =   0.0020000
        k(  303) = (   0.2000000   0.0000000   0.3000000), wk =   0.0020000
        k(  304) = (   0.3000000   0.0000000   0.3000000), wk =   0.0020000
        k(  305) = (   0.4000000   0.0000000   0.3000000), wk =   0.0020000
        k(  306) = (   0.5000000   0.0000000   0.3000000), wk =   0.0020000
        k(  307) = (   0.6000000   0.0000000   0.3000000), wk =   0.0020000
        k(  308) = (   0.7000000   0.0000000   0.3000000), wk =   0.0020000
        k(  309) = (   0.8000000   0.0000000   0.3000000), wk =   0.0020000
        k(  310) = (   0.9000000   0.0000000   0.3000000), wk =   0.0020000
        k(  311) = (   0.0000000   0.1000000   0.3000000), wk =   0.0020000
        k(  312) = (   0.1000000   0.1000000   0.3000000), wk =   0.0020000
        k(  313) = (   0.2000000   0.1000000   0.3000000), wk =   0.0020000
        k(  314) = (   0.3000000   0.1000000   0.3000000), wk =   0.0020000
        k(  315) = (   0.4000000   0.1000000   0.3000000), wk =   0.0020000
        k(  316) = (   0.5000000   0.1000000   0.3000000), wk =   0.0020000
        k(  317) = (   0.6000000   0.1000000   0.3000000), wk =   0.0020000
        k(  318) = (   0.7000000   0.1000000   0.3000000), wk =   0.0020000
        k(  319) = (   0.8000000   0.1000000   0.3000000), wk =   0.0020000
        k(  320) = (   0.9000000   0.1000000   0.3000000), wk =   0.0020000
        k(  321) = (   0.0000000   0.2000000   0.3000000), wk =   0.0020000
        k(  322) = (   0.1000000   0.2000000   0.3000000), wk =   0.0020000
        k(  323) = (   0.2000000   0.2000000   0.3000000), wk =   0.0020000
        k(  324) = (   0.3000000   0.2000000   0.3000000), wk =   0.0020000
        k(  325) = (   0.4000000   0.2000000   0.3000000), wk =   0.0020000
        k(  326) = (   0.5000000   0.2000000   0.3000000), wk =   0.0020000
        k(  327) = (   0.6000000   0.2000000   0.3000000), wk =   0.0020000
        k(  328) = (   0.7000000   0.2000000   0.3000000), wk =   0.0020000
        k(  329) = (   0.8000000   0.2000000   0.3000000), wk =   0.0020000
        k(  330) = (   0.9000000   0.2000000   0.3000000), wk =   0.0020000
        k(  331) = (   0.0000000   0.3000000   0.3000000), wk =   0.0020000
        k(  332) = (   0.1000000   0.3000000   0.3000000), wk =   0.0020000
        k(  333) = (   0.2000000   0.3000000   0.3000000), wk =   0.0020000
        k(  334) = (   0.3000000   0.3000000   0.3000000), wk =   0.0020000
        k(  335) = (   0.4000000   0.3000000   0.3000000), wk =   0.0020000
        k(  336) = (   0.5000000   0.3000000   0.3000000), wk =   0.0020000
        k(  337) = (   0.6000000   0.3000000   0.3000000), wk =   0.0020000
        k(  338) = (   0.7000000   0.3000000   0.3000000), wk =   0.0020000
        k(  339) = (   0.8000000   0.3000000   0.3000000), wk =   0.0020000
        k(  340) = (   0.9000000   0.3000000   0.3000000), wk =   0.0020000
        k(  341) = (   0.0000000   0.4000000   0.3000000), wk =   0.0020000
        k(  342) = (   0.1000000   0.4000000   0.3000000), wk =   0.0020000
        k(  343) = (   0.2000000   0.4000000   0.3000000), wk =   0.0020000
        k(  344) = (   0.3000000   0.4000000   0.3000000), wk =   0.0020000
        k(  345) = (   0.4000000   0.4000000   0.3000000), wk =   0.0020000
        k(  346) = (   0.5000000   0.4000000   0.3000000), wk =   0.0020000
        k(  347) = (   0.6000000   0.4000000   0.3000000), wk =   0.0020000
        k(  348) = (   0.7000000   0.4000000   0.3000000), wk =   0.0020000
        k(  349) = (   0.8000000   0.4000000   0.3000000), wk =   0.0020000
        k(  350) = (   0.9000000   0.4000000   0.3000000), wk =   0.0020000
        k(  351) = (   0.0000000   0.5000000   0.3000000), wk =   0.0020000
        k(  352) = (   0.1000000   0.5000000   0.3000000), wk =   0.0020000
        k(  353) = (   0.2000000   0.5000000   0.3000000), wk =   0.0020000
        k(  354) = (   0.3000000   0.5000000   0.3000000), wk =   0.0020000
        k(  355) = (   0.4000000   0.5000000   0.3000000), wk =   0.0020000
        k(  356) = (   0.5000000   0.5000000   0.3000000), wk =   0.0020000
        k(  357) = (   0.6000000   0.5000000   0.3000000), wk =   0.0020000
        k(  358) = (   0.7000000   0.5000000   0.3000000), wk =   0.0020000
        k(  359) = (   0.8000000   0.5000000   0.3000000), wk =   0.0020000
        k(  360) = (   0.9000000   0.5000000   0.3000000), wk =   0.0020000
        k(  361) = (   0.0000000   0.6000000   0.3000000), wk =   0.0020000
        k(  362) = (   0.1000000   0.6000000   0.3000000), wk =   0.0020000
        k(  363) = (   0.2000000   0.6000000   0.3000000), wk =   0.0020000
        k(  364) = (   0.3000000   0.6000000   0.3000000), wk =   0.0020000
        k(  365) = (   0.4000000   0.6000000   0.3000000), wk =   0.0020000
        k(  366) = (   0.5000000   0.6000000   0.3000000), wk =   0.0020000
        k(  367) = (   0.6000000   0.6000000   0.3000000), wk =   0.0020000
        k(  368) = (   0.7000000   0.6000000   0.3000000), wk =   0.0020000
        k(  369) = (   0.8000000   0.6000000   0.3000000), wk =   0.0020000
        k(  370) = (   0.9000000   0.6000000   0.3000000), wk =   0.0020000
        k(  371) = (   0.0000000   0.7000000   0.3000000), wk =   0.0020000
        k(  372) = (   0.1000000   0.7000000   0.3000000), wk =   0.0020000
        k(  373) = (   0.2000000   0.7000000   0.3000000), wk =   0.0020000
        k(  374) = (   0.3000000   0.7000000   0.3000000), wk =   0.0020000
        k(  375) = (   0.4000000   0.7000000   0.3000000), wk =   0.0020000
        k(  376) = (   0.5000000   0.7000000   0.3000000), wk =   0.0020000
        k(  377) = (   0.6000000   0.7000000   0.3000000), wk =   0.0020000
        k(  378) = (   0.7000000   0.7000000   0.3000000), wk =   0.0020000
        k(  379) = (   0.8000000   0.7000000   0.3000000), wk =   0.0020000
        k(  380) = (   0.9000000   0.7000000   0.3000000), wk =   0.0020000
        k(  381) = (   0.0000000   0.8000000   0.3000000), wk =   0.0020000
        k(  382) = (   0.1000000   0.8000000   0.3000000), wk =   0.0020000
        k(  383) = (   0.2000000   0.8000000   0.3000000), wk =   0.0020000
        k(  384) = (   0.3000000   0.8000000   0.3000000), wk =   0.0020000
        k(  385) = (   0.4000000   0.8000000   0.3000000), wk =   0.0020000
        k(  386) = (   0.5000000   0.8000000   0.3000000), wk =   0.0020000
        k(  387) = (   0.6000000   0.8000000   0.3000000), wk =   0.0020000
        k(  388) = (   0.7000000   0.8000000   0.3000000), wk =   0.0020000
        k(  389) = (   0.8000000   0.8000000   0.3000000), wk =   0.0020000
        k(  390) = (   0.9000000   0.8000000   0.3000000), wk =   0.0020000
        k(  391) = (   0.0000000   0.9000000   0.3000000), wk =   0.0020000
        k(  392) = (   0.1000000   0.9000000   0.3000000), wk =   0.0020000
        k(  393) = (   0.2000000   0.9000000   0.3000000), wk =   0.0020000
        k(  394) = (   0.3000000   0.9000000   0.3000000), wk =   0.0020000
        k(  395) = (   0.4000000   0.9000000   0.3000000), wk =   0.0020000
        k(  396) = (   0.5000000   0.9000000   0.3000000), wk =   0.0020000
        k(  397) = (   0.6000000   0.9000000   0.3000000), wk =   0.0020000
        k(  398) = (   0.7000000   0.9000000   0.3000000), wk =   0.0020000
        k(  399) = (   0.8000000   0.9000000   0.3000000), wk =   0.0020000
        k(  400) = (   0.9000000   0.9000000   0.3000000), wk =   0.0020000
        k(  401) = (   0.0000000   0.0000000   0.4000000), wk =   0.0020000
        k(  402) = (   0.1000000   0.0000000   0.4000000), wk =   0.0020000
        k(  403) = (   0.2000000   0.0000000   0.4000000), wk =   0.0020000
        k(  404) = (   0.3000000   0.0000000   0.4000000), wk =   0.0020000
        k(  405) = (   0.4000000   0.0000000   0.4000000), wk =   0.0020000
        k(  406) = (   0.5000000   0.0000000   0.4000000), wk =   0.0020000
        k(  407) = (   0.6000000   0.0000000   0.4000000), wk =   0.0020000
        k(  408) = (   0.7000000   0.0000000   0.4000000), wk =   0.0020000
        k(  409) = (   0.8000000   0.0000000   0.4000000), wk =   0.0020000
        k(  410) = (   0.9000000   0.0000000   0.4000000), wk =   0.0020000
        k(  411) = (   0.0000000   0.1000000   0.4000000), wk =   0.0020000
        k(  412) = (   0.1000000   0.1000000   0.4000000), wk =   0.0020000
        k(  413) = (   0.2000000   0.1000000   0.4000000), wk =   0.0020000
        k(  414) = (   0.3000000   0.1000000   0.4000000), wk =   0.0020000
        k(  415) = (   0.4000000   0.1000000   0.4000000), wk =   0.0020000
        k(  416) = (   0.5000000   0.1000000   0.4000000), wk =   0.0020000
        k(  417) = (   0.6000000   0.1000000   0.4000000), wk =   0.0020000
        k(  418) = (   0.7000000   0.1000000   0.4000000), wk =   0.0020000
        k(  419) = (   0.8000000   0.1000000   0.4000000), wk =   0.0020000
        k(  420) = (   0.9000000   0.1000000   0.4000000), wk =   0.0020000
        k(  421) = (   0.0000000   0.2000000   0.4000000), wk =   0.0020000
        k(  422) = (   0.1000000   0.2000000   0.4000000), wk =   0.0020000
        k(  423) = (   0.2000000   0.2000000   0.4000000), wk =   0.0020000
        k(  424) = (   0.3000000   0.2000000   0.4000000), wk =   0.0020000
        k(  425) = (   0.4000000   0.2000000   0.4000000), wk =   0.0020000
        k(  426) = (   0.5000000   0.2000000   0.4000000), wk =   0.0020000
        k(  427) = (   0.6000000   0.2000000   0.4000000), wk =   0.0020000
        k(  428) = (   0.7000000   0.2000000   0.4000000), wk =   0.0020000
        k(  429) = (   0.8000000   0.2000000   0.4000000), wk =   0.0020000
        k(  430) = (   0.9000000   0.2000000   0.4000000), wk =   0.0020000
        k(  431) = (   0.0000000   0.3000000   0.4000000), wk =   0.0020000
        k(  432) = (   0.1000000   0.3000000   0.4000000), wk =   0.0020000
        k(  433) = (   0.2000000   0.3000000   0.4000000), wk =   0.0020000
        k(  434) = (   0.3000000   0.3000000   0.4000000), wk =   0.0020000
        k(  435) = (   0.4000000   0.3000000   0.4000000), wk =   0.0020000
        k(  436) = (   0.5000000   0.3000000   0.4000000), wk =   0.0020000
        k(  437) = (   0.6000000   0.3000000   0.4000000), wk =   0.0020000
        k(  438) = (   0.7000000   0.3000000   0.4000000), wk =   0.0020000
        k(  439) = (   0.8000000   0.3000000   0.4000000), wk =   0.0020000
        k(  440) = (   0.9000000   0.3000000   0.4000000), wk =   0.0020000
        k(  441) = (   0.0000000   0.4000000   0.4000000), wk =   0.0020000
        k(  442) = (   0.1000000   0.4000000   0.4000000), wk =   0.0020000
        k(  443) = (   0.2000000   0.4000000   0.4000000), wk =   0.0020000
        k(  444) = (   0.3000000   0.4000000   0.4000000), wk =   0.0020000
        k(  445) = (   0.4000000   0.4000000   0.4000000), wk =   0.0020000
        k(  446) = (   0.5000000   0.4000000   0.4000000), wk =   0.0020000
        k(  447) = (   0.6000000   0.4000000   0.4000000), wk =   0.0020000
        k(  448) = (   0.7000000   0.4000000   0.4000000), wk =   0.0020000
        k(  449) = (   0.8000000   0.4000000   0.4000000), wk =   0.0020000
        k(  450) = (   0.9000000   0.4000000   0.4000000), wk =   0.0020000
        k(  451) = (   0.0000000   0.5000000   0.4000000), wk =   0.0020000
        k(  452) = (   0.1000000   0.5000000   0.4000000), wk =   0.0020000
        k(  453) = (   0.2000000   0.5000000   0.4000000), wk =   0.0020000
        k(  454) = (   0.3000000   0.5000000   0.4000000), wk =   0.0020000
        k(  455) = (   0.4000000   0.5000000   0.4000000), wk =   0.0020000
        k(  456) = (   0.5000000   0.5000000   0.4000000), wk =   0.0020000
        k(  457) = (   0.6000000   0.5000000   0.4000000), wk =   0.0020000
        k(  458) = (   0.7000000   0.5000000   0.4000000), wk =   0.0020000
        k(  459) = (   0.8000000   0.5000000   0.4000000), wk =   0.0020000
        k(  460) = (   0.9000000   0.5000000   0.4000000), wk =   0.0020000
        k(  461) = (   0.0000000   0.6000000   0.4000000), wk =   0.0020000
        k(  462) = (   0.1000000   0.6000000   0.4000000), wk =   0.0020000
        k(  463) = (   0.2000000   0.6000000   0.4000000), wk =   0.0020000
        k(  464) = (   0.3000000   0.6000000   0.4000000), wk =   0.0020000
        k(  465) = (   0.4000000   0.6000000   0.4000000), wk =   0.0020000
        k(  466) = (   0.5000000   0.6000000   0.4000000), wk =   0.0020000
        k(  467) = (   0.6000000   0.6000000   0.4000000), wk =   0.0020000
        k(  468) = (   0.7000000   0.6000000   0.4000000), wk =   0.0020000
        k(  469) = (   0.8000000   0.6000000   0.4000000), wk =   0.0020000
        k(  470) = (   0.9000000   0.6000000   0.4000000), wk =   0.0020000
        k(  471) = (   0.0000000   0.7000000   0.4000000), wk =   0.0020000
        k(  472) = (   0.1000000   0.7000000   0.4000000), wk =   0.0020000
        k(  473) = (   0.2000000   0.7000000   0.4000000), wk =   0.0020000
        k(  474) = (   0.3000000   0.7000000   0.4000000), wk =   0.0020000
        k(  475) = (   0.4000000   0.7000000   0.4000000), wk =   0.0020000
        k(  476) = (   0.5000000   0.7000000   0.4000000), wk =   0.0020000
        k(  477) = (   0.6000000   0.7000000   0.4000000), wk =   0.0020000
        k(  478) = (   0.7000000   0.7000000   0.4000000), wk =   0.0020000
        k(  479) = (   0.8000000   0.7000000   0.4000000), wk =   0.0020000
        k(  480) = (   0.9000000   0.7000000   0.4000000), wk =   0.0020000
        k(  481) = (   0.0000000   0.8000000   0.4000000), wk =   0.0020000
        k(  482) = (   0.1000000   0.8000000   0.4000000), wk =   0.0020000
        k(  483) = (   0.2000000   0.8000000   0.4000000), wk =   0.0020000
        k(  484) = (   0.3000000   0.8000000   0.4000000), wk =   0.0020000
        k(  485) = (   0.4000000   0.8000000   0.4000000), wk =   0.0020000
        k(  486) = (   0.5000000   0.8000000   0.4000000), wk =   0.0020000
        k(  487) = (   0.6000000   0.8000000   0.4000000), wk =   0.0020000
        k(  488) = (   0.7000000   0.8000000   0.4000000), wk =   0.0020000
        k(  489) = (   0.8000000   0.8000000   0.4000000), wk =   0.0020000
        k(  490) = (   0.9000000   0.8000000   0.4000000), wk =   0.0020000
        k(  491) = (   0.0000000   0.9000000   0.4000000), wk =   0.0020000
        k(  492) = (   0.1000000   0.9000000   0.4000000), wk =   0.0020000
        k(  493) = (   0.2000000   0.9000000   0.4000000), wk =   0.0020000
        k(  494) = (   0.3000000   0.9000000   0.4000000), wk =   0.0020000
        k(  495) = (   0.4000000   0.9000000   0.4000000), wk =   0.0020000
        k(  496) = (   0.5000000   0.9000000   0.4000000), wk =   0.0020000
        k(  497) = (   0.6000000   0.9000000   0.4000000), wk =   0.0020000
        k(  498) = (   0.7000000   0.9000000   0.4000000), wk =   0.0020000
        k(  499) = (   0.8000000   0.9000000   0.4000000), wk =   0.0020000
        k(  500) = (   0.9000000   0.9000000   0.4000000), wk =   0.0020000
        k(  501) = (   0.0000000   0.0000000   0.5000000), wk =   0.0020000
        k(  502) = (   0.1000000   0.0000000   0.5000000), wk =   0.0020000
        k(  503) = (   0.2000000   0.0000000   0.5000000), wk =   0.0020000
        k(  504) = (   0.3000000   0.0000000   0.5000000), wk =   0.0020000
        k(  505) = (   0.4000000   0.0000000   0.5000000), wk =   0.0020000
        k(  506) = (   0.5000000   0.0000000   0.5000000), wk =   0.0020000
        k(  507) = (   0.6000000   0.0000000   0.5000000), wk =   0.0020000
        k(  508) = (   0.7000000   0.0000000   0.5000000), wk =   0.0020000
        k(  509) = (   0.8000000   0.0000000   0.5000000), wk =   0.0020000
        k(  510) = (   0.9000000   0.0000000   0.5000000), wk =   0.0020000
        k(  511) = (   0.0000000   0.1000000   0.5000000), wk =   0.0020000
        k(  512) = (   0.1000000   0.1000000   0.5000000), wk =   0.0020000
        k(  513) = (   0.2000000   0.1000000   0.5000000), wk =   0.0020000
        k(  514) = (   0.3000000   0.1000000   0.5000000), wk =   0.0020000
        k(  515) = (   0.4000000   0.1000000   0.5000000), wk =   0.0020000
        k(  516) = (   0.5000000   0.1000000   0.5000000), wk =   0.0020000
        k(  517) = (   0.6000000   0.1000000   0.5000000), wk =   0.0020000
        k(  518) = (   0.7000000   0.1000000   0.5000000), wk =   0.0020000
        k(  519) = (   0.8000000   0.1000000   0.5000000), wk =   0.0020000
        k(  520) = (   0.9000000   0.1000000   0.5000000), wk =   0.0020000
        k(  521) = (   0.0000000   0.2000000   0.5000000), wk =   0.0020000
        k(  522) = (   0.1000000   0.2000000   0.5000000), wk =   0.0020000
        k(  523) = (   0.2000000   0.2000000   0.5000000), wk =   0.0020000
        k(  524) = (   0.3000000   0.2000000   0.5000000), wk =   0.0020000
        k(  525) = (   0.4000000   0.2000000   0.5000000), wk =   0.0020000
        k(  526) = (   0.5000000   0.2000000   0.5000000), wk =   0.0020000
        k(  527) = (   0.6000000   0.2000000   0.5000000), wk =   0.0020000
        k(  528) = (   0.7000000   0.2000000   0.5000000), wk =   0.0020000
        k(  529) = (   0.8000000   0.2000000   0.5000000), wk =   0.0020000
        k(  530) = (   0.9000000   0.2000000   0.5000000), wk =   0.0020000
        k(  531) = (   0.0000000   0.3000000   0.5000000), wk =   0.0020000
        k(  532) = (   0.1000000   0.3000000   0.5000000), wk =   0.0020000
        k(  533) = (   0.2000000   0.3000000   0.5000000), wk =   0.0020000
        k(  534) = (   0.3000000   0.3000000   0.5000000), wk =   0.0020000
        k(  535) = (   0.4000000   0.3000000   0.5000000), wk =   0.0020000
        k(  536) = (   0.5000000   0.3000000   0.5000000), wk =   0.0020000
        k(  537) = (   0.6000000   0.3000000   0.5000000), wk =   0.0020000
        k(  538) = (   0.7000000   0.3000000   0.5000000), wk =   0.0020000
        k(  539) = (   0.8000000   0.3000000   0.5000000), wk =   0.0020000
        k(  540) = (   0.9000000   0.3000000   0.5000000), wk =   0.0020000
        k(  541) = (   0.0000000   0.4000000   0.5000000), wk =   0.0020000
        k(  542) = (   0.1000000   0.4000000   0.5000000), wk =   0.0020000
        k(  543) = (   0.2000000   0.4000000   0.5000000), wk =   0.0020000
        k(  544) = (   0.3000000   0.4000000   0.5000000), wk =   0.0020000
        k(  545) = (   0.4000000   0.4000000   0.5000000), wk =   0.0020000
        k(  546) = (   0.5000000   0.4000000   0.5000000), wk =   0.0020000
        k(  547) = (   0.6000000   0.4000000   0.5000000), wk =   0.0020000
        k(  548) = (   0.7000000   0.4000000   0.5000000), wk =   0.0020000
        k(  549) = (   0.8000000   0.4000000   0.5000000), wk =   0.0020000
        k(  550) = (   0.9000000   0.4000000   0.5000000), wk =   0.0020000
        k(  551) = (   0.0000000   0.5000000   0.5000000), wk =   0.0020000
        k(  552) = (   0.1000000   0.5000000   0.5000000), wk =   0.0020000
        k(  553) = (   0.2000000   0.5000000   0.5000000), wk =   0.0020000
        k(  554) = (   0.3000000   0.5000000   0.5000000), wk =   0.0020000
        k(  555) = (   0.4000000   0.5000000   0.5000000), wk =   0.0020000
        k(  556) = (   0.5000000   0.5000000   0.5000000), wk =   0.0020000
        k(  557) = (   0.6000000   0.5000000   0.5000000), wk =   0.0020000
        k(  558) = (   0.7000000   0.5000000   0.5000000), wk =   0.0020000
        k(  559) = (   0.8000000   0.5000000   0.5000000), wk =   0.0020000
        k(  560) = (   0.9000000   0.5000000   0.5000000), wk =   0.0020000
        k(  561) = (   0.0000000   0.6000000   0.5000000), wk =   0.0020000
        k(  562) = (   0.1000000   0.6000000   0.5000000), wk =   0.0020000
        k(  563) = (   0.2000000   0.6000000   0.5000000), wk =   0.0020000
        k(  564) = (   0.3000000   0.6000000   0.5000000), wk =   0.0020000
        k(  565) = (   0.4000000   0.6000000   0.5000000), wk =   0.0020000
        k(  566) = (   0.5000000   0.6000000   0.5000000), wk =   0.0020000
        k(  567) = (   0.6000000   0.6000000   0.5000000), wk =   0.0020000
        k(  568) = (   0.7000000   0.6000000   0.5000000), wk =   0.0020000
        k(  569) = (   0.8000000   0.6000000   0.5000000), wk =   0.0020000
        k(  570) = (   0.9000000   0.6000000   0.5000000), wk =   0.0020000
        k(  571) = (   0.0000000   0.7000000   0.5000000), wk =   0.0020000
        k(  572) = (   0.1000000   0.7000000   0.5000000), wk =   0.0020000
        k(  573) = (   0.2000000   0.7000000   0.5000000), wk =   0.0020000
        k(  574) = (   0.3000000   0.7000000   0.5000000), wk =   0.0020000
        k(  575) = (   0.4000000   0.7000000   0.5000000), wk =   0.0020000
        k(  576) = (   0.5000000   0.7000000   0.5000000), wk =   0.0020000
        k(  577) = (   0.6000000   0.7000000   0.5000000), wk =   0.0020000
        k(  578) = (   0.7000000   0.7000000   0.5000000), wk =   0.0020000
        k(  579) = (   0.8000000   0.7000000   0.5000000), wk =   0.0020000
        k(  580) = (   0.9000000   0.7000000   0.5000000), wk =   0.0020000
        k(  581) = (   0.0000000   0.8000000   0.5000000), wk =   0.0020000
        k(  582) = (   0.1000000   0.8000000   0.5000000), wk =   0.0020000
        k(  583) = (   0.2000000   0.8000000   0.5000000), wk =   0.0020000
        k(  584) = (   0.3000000   0.8000000   0.5000000), wk =   0.0020000
        k(  585) = (   0.4000000   0.8000000   0.5000000), wk =   0.0020000
        k(  586) = (   0.5000000   0.8000000   0.5000000), wk =   0.0020000
        k(  587) = (   0.6000000   0.8000000   0.5000000), wk =   0.0020000
        k(  588) = (   0.7000000   0.8000000   0.5000000), wk =   0.0020000
        k(  589) = (   0.8000000   0.8000000   0.5000000), wk =   0.0020000
        k(  590) = (   0.9000000   0.8000000   0.5000000), wk =   0.0020000
        k(  591) = (   0.0000000   0.9000000   0.5000000), wk =   0.0020000
        k(  592) = (   0.1000000   0.9000000   0.5000000), wk =   0.0020000
        k(  593) = (   0.2000000   0.9000000   0.5000000), wk =   0.0020000
        k(  594) = (   0.3000000   0.9000000   0.5000000), wk =   0.0020000
        k(  595) = (   0.4000000   0.9000000   0.5000000), wk =   0.0020000
        k(  596) = (   0.5000000   0.9000000   0.5000000), wk =   0.0020000
        k(  597) = (   0.6000000   0.9000000   0.5000000), wk =   0.0020000
        k(  598) = (   0.7000000   0.9000000   0.5000000), wk =   0.0020000
        k(  599) = (   0.8000000   0.9000000   0.5000000), wk =   0.0020000
        k(  600) = (   0.9000000   0.9000000   0.5000000), wk =   0.0020000
        k(  601) = (   0.0000000   0.0000000   0.6000000), wk =   0.0020000
        k(  602) = (   0.1000000   0.0000000   0.6000000), wk =   0.0020000
        k(  603) = (   0.2000000   0.0000000   0.6000000), wk =   0.0020000
        k(  604) = (   0.3000000   0.0000000   0.6000000), wk =   0.0020000
        k(  605) = (   0.4000000   0.0000000   0.6000000), wk =   0.0020000
        k(  606) = (   0.5000000   0.0000000   0.6000000), wk =   0.0020000
        k(  607) = (   0.6000000   0.0000000   0.6000000), wk =   0.0020000
        k(  608) = (   0.7000000   0.0000000   0.6000000), wk =   0.0020000
        k(  609) = (   0.8000000   0.0000000   0.6000000), wk =   0.0020000
        k(  610) = (   0.9000000   0.0000000   0.6000000), wk =   0.0020000
        k(  611) = (   0.0000000   0.1000000   0.6000000), wk =   0.0020000
        k(  612) = (   0.1000000   0.1000000   0.6000000), wk =   0.0020000
        k(  613) = (   0.2000000   0.1000000   0.6000000), wk =   0.0020000
        k(  614) = (   0.3000000   0.1000000   0.6000000), wk =   0.0020000
        k(  615) = (   0.4000000   0.1000000   0.6000000), wk =   0.0020000
        k(  616) = (   0.5000000   0.1000000   0.6000000), wk =   0.0020000
        k(  617) = (   0.6000000   0.1000000   0.6000000), wk =   0.0020000
        k(  618) = (   0.7000000   0.1000000   0.6000000), wk =   0.0020000
        k(  619) = (   0.8000000   0.1000000   0.6000000), wk =   0.0020000
        k(  620) = (   0.9000000   0.1000000   0.6000000), wk =   0.0020000
        k(  621) = (   0.0000000   0.2000000   0.6000000), wk =   0.0020000
        k(  622) = (   0.1000000   0.2000000   0.6000000), wk =   0.0020000
        k(  623) = (   0.2000000   0.2000000   0.6000000), wk =   0.0020000
        k(  624) = (   0.3000000   0.2000000   0.6000000), wk =   0.0020000
        k(  625) = (   0.4000000   0.2000000   0.6000000), wk =   0.0020000
        k(  626) = (   0.5000000   0.2000000   0.6000000), wk =   0.0020000
        k(  627) = (   0.6000000   0.2000000   0.6000000), wk =   0.0020000
        k(  628) = (   0.7000000   0.2000000   0.6000000), wk =   0.0020000
        k(  629) = (   0.8000000   0.2000000   0.6000000), wk =   0.0020000
        k(  630) = (   0.9000000   0.2000000   0.6000000), wk =   0.0020000
        k(  631) = (   0.0000000   0.3000000   0.6000000), wk =   0.0020000
        k(  632) = (   0.1000000   0.3000000   0.6000000), wk =   0.0020000
        k(  633) = (   0.2000000   0.3000000   0.6000000), wk =   0.0020000
        k(  634) = (   0.3000000   0.3000000   0.6000000), wk =   0.0020000
        k(  635) = (   0.4000000   0.3000000   0.6000000), wk =   0.0020000
        k(  636) = (   0.5000000   0.3000000   0.6000000), wk =   0.0020000
        k(  637) = (   0.6000000   0.3000000   0.6000000), wk =   0.0020000
        k(  638) = (   0.7000000   0.3000000   0.6000000), wk =   0.0020000
        k(  639) = (   0.8000000   0.3000000   0.6000000), wk =   0.0020000
        k(  640) = (   0.9000000   0.3000000   0.6000000), wk =   0.0020000
        k(  641) = (   0.0000000   0.4000000   0.6000000), wk =   0.0020000
        k(  642) = (   0.1000000   0.4000000   0.6000000), wk =   0.0020000
        k(  643) = (   0.2000000   0.4000000   0.6000000), wk =   0.0020000
        k(  644) = (   0.3000000   0.4000000   0.6000000), wk =   0.0020000
        k(  645) = (   0.4000000   0.4000000   0.6000000), wk =   0.0020000
        k(  646) = (   0.5000000   0.4000000   0.6000000), wk =   0.0020000
        k(  647) = (   0.6000000   0.4000000   0.6000000), wk =   0.0020000
        k(  648) = (   0.7000000   0.4000000   0.6000000), wk =   0.0020000
        k(  649) = (   0.8000000   0.4000000   0.6000000), wk =   0.0020000
        k(  650) = (   0.9000000   0.4000000   0.6000000), wk =   0.0020000
        k(  651) = (   0.0000000   0.5000000   0.6000000), wk =   0.0020000
        k(  652) = (   0.1000000   0.5000000   0.6000000), wk =   0.0020000
        k(  653) = (   0.2000000   0.5000000   0.6000000), wk =   0.0020000
        k(  654) = (   0.3000000   0.5000000   0.6000000), wk =   0.0020000
        k(  655) = (   0.4000000   0.5000000   0.6000000), wk =   0.0020000
        k(  656) = (   0.5000000   0.5000000   0.6000000), wk =   0.0020000
        k(  657) = (   0.6000000   0.5000000   0.6000000), wk =   0.0020000
        k(  658) = (   0.7000000   0.5000000   0.6000000), wk =   0.0020000
        k(  659) = (   0.8000000   0.5000000   0.6000000), wk =   0.0020000
        k(  660) = (   0.9000000   0.5000000   0.6000000), wk =   0.0020000
        k(  661) = (   0.0000000   0.6000000   0.6000000), wk =   0.0020000
        k(  662) = (   0.1000000   0.6000000   0.6000000), wk =   0.0020000
        k(  663) = (   0.2000000   0.6000000   0.6000000), wk =   0.0020000
        k(  664) = (   0.3000000   0.6000000   0.6000000), wk =   0.0020000
        k(  665) = (   0.4000000   0.6000000   0.6000000), wk =   0.0020000
        k(  666) = (   0.5000000   0.6000000   0.6000000), wk =   0.0020000
        k(  667) = (   0.6000000   0.6000000   0.6000000), wk =   0.0020000
        k(  668) = (   0.7000000   0.6000000   0.6000000), wk =   0.0020000
        k(  669) = (   0.8000000   0.6000000   0.6000000), wk =   0.0020000
        k(  670) = (   0.9000000   0.6000000   0.6000000), wk =   0.0020000
        k(  671) = (   0.0000000   0.7000000   0.6000000), wk =   0.0020000
        k(  672) = (   0.1000000   0.7000000   0.6000000), wk =   0.0020000
        k(  673) = (   0.2000000   0.7000000   0.6000000), wk =   0.0020000
        k(  674) = (   0.3000000   0.7000000   0.6000000), wk =   0.0020000
        k(  675) = (   0.4000000   0.7000000   0.6000000), wk =   0.0020000
        k(  676) = (   0.5000000   0.7000000   0.6000000), wk =   0.0020000
        k(  677) = (   0.6000000   0.7000000   0.6000000), wk =   0.0020000
        k(  678) = (   0.7000000   0.7000000   0.6000000), wk =   0.0020000
        k(  679) = (   0.8000000   0.7000000   0.6000000), wk =   0.0020000
        k(  680) = (   0.9000000   0.7000000   0.6000000), wk =   0.0020000
        k(  681) = (   0.0000000   0.8000000   0.6000000), wk =   0.0020000
        k(  682) = (   0.1000000   0.8000000   0.6000000), wk =   0.0020000
        k(  683) = (   0.2000000   0.8000000   0.6000000), wk =   0.0020000
        k(  684) = (   0.3000000   0.8000000   0.6000000), wk =   0.0020000
        k(  685) = (   0.4000000   0.8000000   0.6000000), wk =   0.0020000
        k(  686) = (   0.5000000   0.8000000   0.6000000), wk =   0.0020000
        k(  687) = (   0.6000000   0.8000000   0.6000000), wk =   0.0020000
        k(  688) = (   0.7000000   0.8000000   0.6000000), wk =   0.0020000
        k(  689) = (   0.8000000   0.8000000   0.6000000), wk =   0.0020000
        k(  690) = (   0.9000000   0.8000000   0.6000000), wk =   0.0020000
        k(  691) = (   0.0000000   0.9000000   0.6000000), wk =   0.0020000
        k(  692) = (   0.1000000   0.9000000   0.6000000), wk =   0.0020000
        k(  693) = (   0.2000000   0.9000000   0.6000000), wk =   0.0020000
        k(  694) = (   0.3000000   0.9000000   0.6000000), wk =   0.0020000
        k(  695) = (   0.4000000   0.9000000   0.6000000), wk =   0.0020000
        k(  696) = (   0.5000000   0.9000000   0.6000000), wk =   0.0020000
        k(  697) = (   0.6000000   0.9000000   0.6000000), wk =   0.0020000
        k(  698) = (   0.7000000   0.9000000   0.6000000), wk =   0.0020000
        k(  699) = (   0.8000000   0.9000000   0.6000000), wk =   0.0020000
        k(  700) = (   0.9000000   0.9000000   0.6000000), wk =   0.0020000
        k(  701) = (   0.0000000   0.0000000   0.7000000), wk =   0.0020000
        k(  702) = (   0.1000000   0.0000000   0.7000000), wk =   0.0020000
        k(  703) = (   0.2000000   0.0000000   0.7000000), wk =   0.0020000
        k(  704) = (   0.3000000   0.0000000   0.7000000), wk =   0.0020000
        k(  705) = (   0.4000000   0.0000000   0.7000000), wk =   0.0020000
        k(  706) = (   0.5000000   0.0000000   0.7000000), wk =   0.0020000
        k(  707) = (   0.6000000   0.0000000   0.7000000), wk =   0.0020000
        k(  708) = (   0.7000000   0.0000000   0.7000000), wk =   0.0020000
        k(  709) = (   0.8000000   0.0000000   0.7000000), wk =   0.0020000
        k(  710) = (   0.9000000   0.0000000   0.7000000), wk =   0.0020000
        k(  711) = (   0.0000000   0.1000000   0.7000000), wk =   0.0020000
        k(  712) = (   0.1000000   0.1000000   0.7000000), wk =   0.0020000
        k(  713) = (   0.2000000   0.1000000   0.7000000), wk =   0.0020000
        k(  714) = (   0.3000000   0.1000000   0.7000000), wk =   0.0020000
        k(  715) = (   0.4000000   0.1000000   0.7000000), wk =   0.0020000
        k(  716) = (   0.5000000   0.1000000   0.7000000), wk =   0.0020000
        k(  717) = (   0.6000000   0.1000000   0.7000000), wk =   0.0020000
        k(  718) = (   0.7000000   0.1000000   0.7000000), wk =   0.0020000
        k(  719) = (   0.8000000   0.1000000   0.7000000), wk =   0.0020000
        k(  720) = (   0.9000000   0.1000000   0.7000000), wk =   0.0020000
        k(  721) = (   0.0000000   0.2000000   0.7000000), wk =   0.0020000
        k(  722) = (   0.1000000   0.2000000   0.7000000), wk =   0.0020000
        k(  723) = (   0.2000000   0.2000000   0.7000000), wk =   0.0020000
        k(  724) = (   0.3000000   0.2000000   0.7000000), wk =   0.0020000
        k(  725) = (   0.4000000   0.2000000   0.7000000), wk =   0.0020000
        k(  726) = (   0.5000000   0.2000000   0.7000000), wk =   0.0020000
        k(  727) = (   0.6000000   0.2000000   0.7000000), wk =   0.0020000
        k(  728) = (   0.7000000   0.2000000   0.7000000), wk =   0.0020000
        k(  729) = (   0.8000000   0.2000000   0.7000000), wk =   0.0020000
        k(  730) = (   0.9000000   0.2000000   0.7000000), wk =   0.0020000
        k(  731) = (   0.0000000   0.3000000   0.7000000), wk =   0.0020000
        k(  732) = (   0.1000000   0.3000000   0.7000000), wk =   0.0020000
        k(  733) = (   0.2000000   0.3000000   0.7000000), wk =   0.0020000
        k(  734) = (   0.3000000   0.3000000   0.7000000), wk =   0.0020000
        k(  735) = (   0.4000000   0.3000000   0.7000000), wk =   0.0020000
        k(  736) = (   0.5000000   0.3000000   0.7000000), wk =   0.0020000
        k(  737) = (   0.6000000   0.3000000   0.7000000), wk =   0.0020000
        k(  738) = (   0.7000000   0.3000000   0.7000000), wk =   0.0020000
        k(  739) = (   0.8000000   0.3000000   0.7000000), wk =   0.0020000
        k(  740) = (   0.9000000   0.3000000   0.7000000), wk =   0.0020000
        k(  741) = (   0.0000000   0.4000000   0.7000000), wk =   0.0020000
        k(  742) = (   0.1000000   0.4000000   0.7000000), wk =   0.0020000
        k(  743) = (   0.2000000   0.4000000   0.7000000), wk =   0.0020000
        k(  744) = (   0.3000000   0.4000000   0.7000000), wk =   0.0020000
        k(  745) = (   0.4000000   0.4000000   0.7000000), wk =   0.0020000
        k(  746) = (   0.5000000   0.4000000   0.7000000), wk =   0.0020000
        k(  747) = (   0.6000000   0.4000000   0.7000000), wk =   0.0020000
        k(  748) = (   0.7000000   0.4000000   0.7000000), wk =   0.0020000
        k(  749) = (   0.8000000   0.4000000   0.7000000), wk =   0.0020000
        k(  750) = (   0.9000000   0.4000000   0.7000000), wk =   0.0020000
        k(  751) = (   0.0000000   0.5000000   0.7000000), wk =   0.0020000
        k(  752) = (   0.1000000   0.5000000   0.7000000), wk =   0.0020000
        k(  753) = (   0.2000000   0.5000000   0.7000000), wk =   0.0020000
        k(  754) = (   0.3000000   0.5000000   0.7000000), wk =   0.0020000
        k(  755) = (   0.4000000   0.5000000   0.7000000), wk =   0.0020000
        k(  756) = (   0.5000000   0.5000000   0.7000000), wk =   0.0020000
        k(  757) = (   0.6000000   0.5000000   0.7000000), wk =   0.0020000
        k(  758) = (   0.7000000   0.5000000   0.7000000), wk =   0.0020000
        k(  759) = (   0.8000000   0.5000000   0.7000000), wk =   0.0020000
        k(  760) = (   0.9000000   0.5000000   0.7000000), wk =   0.0020000
        k(  761) = (   0.0000000   0.6000000   0.7000000), wk =   0.0020000
        k(  762) = (   0.1000000   0.6000000   0.7000000), wk =   0.0020000
        k(  763) = (   0.2000000   0.6000000   0.7000000), wk =   0.0020000
        k(  764) = (   0.3000000   0.6000000   0.7000000), wk =   0.0020000
        k(  765) = (   0.4000000   0.6000000   0.7000000), wk =   0.0020000
        k(  766) = (   0.5000000   0.6000000   0.7000000), wk =   0.0020000
        k(  767) = (   0.6000000   0.6000000   0.7000000), wk =   0.0020000
        k(  768) = (   0.7000000   0.6000000   0.7000000), wk =   0.0020000
        k(  769) = (   0.8000000   0.6000000   0.7000000), wk =   0.0020000
        k(  770) = (   0.9000000   0.6000000   0.7000000), wk =   0.0020000
        k(  771) = (   0.0000000   0.7000000   0.7000000), wk =   0.0020000
        k(  772) = (   0.1000000   0.7000000   0.7000000), wk =   0.0020000
        k(  773) = (   0.2000000   0.7000000   0.7000000), wk =   0.0020000
        k(  774) = (   0.3000000   0.7000000   0.7000000), wk =   0.0020000
        k(  775) = (   0.4000000   0.7000000   0.7000000), wk =   0.0020000
        k(  776) = (   0.5000000   0.7000000   0.7000000), wk =   0.0020000
        k(  777) = (   0.6000000   0.7000000   0.7000000), wk =   0.0020000
        k(  778) = (   0.7000000   0.7000000   0.7000000), wk =   0.0020000
        k(  779) = (   0.8000000   0.7000000   0.7000000), wk =   0.0020000
        k(  780) = (   0.9000000   0.7000000   0.7000000), wk =   0.0020000
        k(  781) = (   0.0000000   0.8000000   0.7000000), wk =   0.0020000
        k(  782) = (   0.1000000   0.8000000   0.7000000), wk =   0.0020000
        k(  783) = (   0.2000000   0.8000000   0.7000000), wk =   0.0020000
        k(  784) = (   0.3000000   0.8000000   0.7000000), wk =   0.0020000
        k(  785) = (   0.4000000   0.8000000   0.7000000), wk =   0.0020000
        k(  786) = (   0.5000000   0.8000000   0.7000000), wk =   0.0020000
        k(  787) = (   0.6000000   0.8000000   0.7000000), wk =   0.0020000
        k(  788) = (   0.7000000   0.8000000   0.7000000), wk =   0.0020000
        k(  789) = (   0.8000000   0.8000000   0.7000000), wk =   0.0020000
        k(  790) = (   0.9000000   0.8000000   0.7000000), wk =   0.0020000
        k(  791) = (   0.0000000   0.9000000   0.7000000), wk =   0.0020000
        k(  792) = (   0.1000000   0.9000000   0.7000000), wk =   0.0020000
        k(  793) = (   0.2000000   0.9000000   0.7000000), wk =   0.0020000
        k(  794) = (   0.3000000   0.9000000   0.7000000), wk =   0.0020000
        k(  795) = (   0.4000000   0.9000000   0.7000000), wk =   0.0020000
        k(  796) = (   0.5000000   0.9000000   0.7000000), wk =   0.0020000
        k(  797) = (   0.6000000   0.9000000   0.7000000), wk =   0.0020000
        k(  798) = (   0.7000000   0.9000000   0.7000000), wk =   0.0020000
        k(  799) = (   0.8000000   0.9000000   0.7000000), wk =   0.0020000
        k(  800) = (   0.9000000   0.9000000   0.7000000), wk =   0.0020000
        k(  801) = (   0.0000000   0.0000000   0.8000000), wk =   0.0020000
        k(  802) = (   0.1000000   0.0000000   0.8000000), wk =   0.0020000
        k(  803) = (   0.2000000   0.0000000   0.8000000), wk =   0.0020000
        k(  804) = (   0.3000000   0.0000000   0.8000000), wk =   0.0020000
        k(  805) = (   0.4000000   0.0000000   0.8000000), wk =   0.0020000
        k(  806) = (   0.5000000   0.0000000   0.8000000), wk =   0.0020000
        k(  807) = (   0.6000000   0.0000000   0.8000000), wk =   0.0020000
        k(  808) = (   0.7000000   0.0000000   0.8000000), wk =   0.0020000
        k(  809) = (   0.8000000   0.0000000   0.8000000), wk =   0.0020000
        k(  810) = (   0.9000000   0.0000000   0.8000000), wk =   0.0020000
        k(  811) = (   0.0000000   0.1000000   0.8000000), wk =   0.0020000
        k(  812) = (   0.1000000   0.1000000   0.8000000), wk =   0.0020000
        k(  813) = (   0.2000000   0.1000000   0.8000000), wk =   0.0020000
        k(  814) = (   0.3000000   0.1000000   0.8000000), wk =   0.0020000
        k(  815) = (   0.4000000   0.1000000   0.8000000), wk =   0.0020000
        k(  816) = (   0.5000000   0.1000000   0.8000000), wk =   0.0020000
        k(  817) = (   0.6000000   0.1000000   0.8000000), wk =   0.0020000
        k(  818) = (   0.7000000   0.1000000   0.8000000), wk =   0.0020000
        k(  819) = (   0.8000000   0.1000000   0.8000000), wk =   0.0020000
        k(  820) = (   0.9000000   0.1000000   0.8000000), wk =   0.0020000
        k(  821) = (   0.0000000   0.2000000   0.8000000), wk =   0.0020000
        k(  822) = (   0.1000000   0.2000000   0.8000000), wk =   0.0020000
        k(  823) = (   0.2000000   0.2000000   0.8000000), wk =   0.0020000
        k(  824) = (   0.3000000   0.2000000   0.8000000), wk =   0.0020000
        k(  825) = (   0.4000000   0.2000000   0.8000000), wk =   0.0020000
        k(  826) = (   0.5000000   0.2000000   0.8000000), wk =   0.0020000
        k(  827) = (   0.6000000   0.2000000   0.8000000), wk =   0.0020000
        k(  828) = (   0.7000000   0.2000000   0.8000000), wk =   0.0020000
        k(  829) = (   0.8000000   0.2000000   0.8000000), wk =   0.0020000
        k(  830) = (   0.9000000   0.2000000   0.8000000), wk =   0.0020000
        k(  831) = (   0.0000000   0.3000000   0.8000000), wk =   0.0020000
        k(  832) = (   0.1000000   0.3000000   0.8000000), wk =   0.0020000
        k(  833) = (   0.2000000   0.3000000   0.8000000), wk =   0.0020000
        k(  834) = (   0.3000000   0.3000000   0.8000000), wk =   0.0020000
        k(  835) = (   0.4000000   0.3000000   0.8000000), wk =   0.0020000
        k(  836) = (   0.5000000   0.3000000   0.8000000), wk =   0.0020000
        k(  837) = (   0.6000000   0.3000000   0.8000000), wk =   0.0020000
        k(  838) = (   0.7000000   0.3000000   0.8000000), wk =   0.0020000
        k(  839) = (   0.8000000   0.3000000   0.8000000), wk =   0.0020000
        k(  840) = (   0.9000000   0.3000000   0.8000000), wk =   0.0020000
        k(  841) = (   0.0000000   0.4000000   0.8000000), wk =   0.0020000
        k(  842) = (   0.1000000   0.4000000   0.8000000), wk =   0.0020000
        k(  843) = (   0.2000000   0.4000000   0.8000000), wk =   0.0020000
        k(  844) = (   0.3000000   0.4000000   0.8000000), wk =   0.0020000
        k(  845) = (   0.4000000   0.4000000   0.8000000), wk =   0.0020000
        k(  846) = (   0.5000000   0.4000000   0.8000000), wk =   0.0020000
        k(  847) = (   0.6000000   0.4000000   0.8000000), wk =   0.0020000
        k(  848) = (   0.7000000   0.4000000   0.8000000), wk =   0.0020000
        k(  849) = (   0.8000000   0.4000000   0.8000000), wk =   0.0020000
        k(  850) = (   0.9000000   0.4000000   0.8000000), wk =   0.0020000
        k(  851) = (   0.0000000   0.5000000   0.8000000), wk =   0.0020000
        k(  852) = (   0.1000000   0.5000000   0.8000000), wk =   0.0020000
        k(  853) = (   0.2000000   0.5000000   0.8000000), wk =   0.0020000
        k(  854) = (   0.3000000   0.5000000   0.8000000), wk =   0.0020000
        k(  855) = (   0.4000000   0.5000000   0.8000000), wk =   0.0020000
[...]

          k = 0.9000 0.5000 0.9000 (  1626 PWs)   bands (ev):

    -4.6653  -4.6652  -2.1489  -2.1488  -0.9234  -0.9233   1.9642   1.9642
     2.2782   2.2782   2.8699   2.8699   4.1393   4.1394   4.3043   4.3044

     occupation numbers 
     1.0000   1.0000   1.0000   1.0000   1.0000   1.0000   1.0000   1.0000
     1.0000   1.0000   1.0000   1.0000   1.0000   1.0000   1.0000   1.0000

          k = 0.0000 0.6000 0.9000 (  1625 PWs)   bands (ev):

    -5.0908  -4.2384  -2.0976  -1.8716  -1.1902  -0.9540   1.6402   1.9636
     2.1574   2.6548   2.8342   3.2771   3.7265   3.9464   4.4692   4.8564

     occupation numbers 
     1.0000   1.0000   1.0000   1.0000   1.0000   1.0000   1.0000   1.0000
     1.0000   1.0000   1.0000   1.0000   1.0000   1.0000   1.0000   1.0000

          k = 0.1000 0.6000 0.9000 (  1631 PWs)   bands (ev):

    -5.0496  -4.2011  -2.1773  -2.1772  -0.9119  -0.9119   1.5198   2.0165
     2.0165   2.9473   2.9473   3.0000   3.6498   3.9694   4.6991   4.7129

     occupation numbers 
     1.0000   1.0000   1.0000   1.0000   1.0000   1.0000   1.0000   1.0000
     1.0000   1.0000   1.0000   1.0000   1.0000   1.0000   1.0000   1.0000

          k = 0.2000 0.6000 0.9000 (  1629 PWs)   bands (ev):

    -4.9260  -4.0904  -2.6812  -2.3944  -0.7882  -0.4763   1.2124   1.9042
     2.1638   2.4731   3.2769   3.4006   3.4727   4.0701   4.3421   5.0911

     occupation numbers 
     1.0000   1.0000   1.0000   1.0000   1.0000   1.0000   1.0000   1.0000
     1.0000   1.0000   1.0000   1.0000   1.0000   1.0000   1.0000   1.0000

          k = 0.3000 0.6000 0.9000 (  1625 PWs)   bands (ev):

    -4.7220  -3.9096  -3.1909  -2.6986  -0.5879  -0.0390   0.8162   1.9127
     1.9330   2.3884   3.0503   3.7806   3.8971   3.9970   4.2203   5.3373

     occupation numbers 
     1.0000   1.0000   1.0000   1.0000   1.0000   1.0000   1.0000   1.0000
     1.0000   1.0000   1.0000   1.0000   1.0000   1.0000   1.0000   1.0000

          k = 0.4000 0.6000 0.9000 (  1636 PWs)   bands (ev):

    -4.4403  -3.6656  -3.6655  -3.0372  -0.3164   0.4040   0.4041   1.3737
     2.0903   2.6816   2.6816   3.4498   4.3551   4.3737   4.3738   5.2956

     occupation numbers 
     1.0000   1.0000   1.0000   1.0000   1.0000   1.0000   1.0000   1.0000
     1.0000   1.0000   1.0000   1.0000   1.0000   1.0000   1.0000   1.0000

          k = 0.5000 0.6000 0.9000 (  1636 PWs)   bands (ev):

    -4.0859  -4.0858  -3.3689  -3.3688   0.0188   0.0188   0.8710   0.8711
     2.3494   2.3495   3.0384   3.0385   4.4575   4.4575   4.9326   4.9327

     occupation numbers 
     1.0000   1.0000   1.0000   1.0000   1.0000   1.0000   1.0000   1.0000
     1.0000   1.0000   1.0000   1.0000   1.0000   1.0000   1.0000   1.0000

          k = 0.6000 0.6000 0.9000 (  1636 PWs)   bands (ev):

    -4.4403  -3.6656  -3.6655  -3.0372  -0.3164   0.4040   0.4041   1.3737
     2.0903   2.6816   2.6816   3.4498   4.3551   4.3737   4.3738   5.2956

     occupation numbers 
     1.0000   1.0000   1.0000   1.0000   1.0000   1.0000   1.0000   1.0000
     1.0000   1.0000   1.0000   1.0000   1.0000   1.0000   1.0000   1.0000

          k = 0.7000 0.6000 0.9000 (  1625 PWs)   bands (ev):

    -4.7220  -3.9096  -3.1909  -2.6986  -0.5879  -0.0390   0.8162   1.9127
     1.9330   2.3884   3.0503   3.7806   3.8971   3.9970   4.2203   5.3373

     occupation numbers 
     1.0000   1.0000   1.0000   1.0000   1.0000   1.0000   1.0000   1.0000
     1.0000   1.0000   1.0000   1.0000   1.0000   1.0000   1.0000   1.0000

          k = 0.8000 0.6000 0.9000 (  1629 PWs)   bands (ev):

    -4.9260  -4.0904  -2.6812  -2.3944  -0.7882  -0.4763   1.2124   1.9042
     2.1638   2.4731   3.2769   3.4006   3.4727   4.0701   4.3421   5.0911

     occupation numbers 
     1.0000   1.0000   1.0000   1.0000   1.0000   1.0000   1.0000   1.0000
     1.0000   1.0000   1.0000   1.0000   1.0000   1.0000   1.0000   1.0000

          k = 0.9000 0.6000 0.9000 (  1631 PWs)   bands (ev):

    -5.0496  -4.2011  -2.1773  -2.1772  -0.9119  -0.9119   1.5198   2.0165
     2.0165   2.9473   2.9473   3.0000   3.6498   3.9694   4.6991   4.7129

     occupation numbers 
     1.0000   1.0000   1.0000   1.0000   1.0000   1.0000   1.0000   1.0000
     1.0000   1.0000   1.0000   1.0000   1.0000   1.0000   1.0000   1.0000

          k = 0.0000 0.7000 0.9000 (  1645 PWs)   bands (ev):

    -5.3936  -3.6949  -2.2228  -1.8004  -1.3348  -0.8952   0.7945   2.1122
     2.4592   2.7715   3.0717   3.4619   3.6156   4.0430   4.9227   5.3907

     occupation numbers 
     1.0000   1.0000   1.0000   1.0000   1.0000   1.0000   1.0000   1.0000
     1.0000   1.0000   1.0000   1.0000   1.0000   1.0000   1.0000   1.0000

          k = 0.1000 0.7000 0.9000 (  1644 PWs)   bands (ev):

    -5.3512  -3.6610  -2.2460  -2.2459  -0.8898  -0.8897   0.7298   2.1839
     2.1839   3.1397   3.1397   3.2681   3.6937   3.7028   5.1363   5.3101

     occupation numbers 
     1.0000   1.0000   1.0000   1.0000   1.0000   1.0000   1.0000   1.0000
     1.0000   1.0000   1.0000   1.0000   1.0000   1.0000   1.0000   1.0000

          k = 0.2000 0.7000 0.9000 (  1634 PWs)   bands (ev):

    -5.2241  -3.5614  -2.8388  -2.3263  -0.8572  -0.2973   0.5447   1.9425
     2.3872   2.9854   3.1026   3.3507   3.6122   3.7184   4.8240   5.6022

     occupation numbers 
     1.0000   1.0000   1.0000   1.0000   1.0000   1.0000   1.0000   1.0000
     1.0000   1.0000   1.0000   1.0000   1.0000   1.0000   1.0000   1.0000

          k = 0.3000 0.7000 0.9000 (  1612 PWs)   bands (ev):

    -5.0136  -3.4013  -3.4012  -2.4802  -0.7633   0.2718   0.2718   1.8624
     2.4964   2.6884   2.6884   3.7156   3.7156   3.9284   4.3651   5.6564

     occupation numbers 
     1.0000   1.0000   1.0000   1.0000   1.0000   1.0000   1.0000   1.0000
     1.0000   1.0000   1.0000   1.0000   1.0000   1.0000   1.0000   1.0000

          k = 0.4000 0.7000 0.9000 (  1625 PWs)   bands (ev):

    -4.7220  -3.9096  -3.1909  -2.6986  -0.5879  -0.0390   0.8162   1.9127
     1.9330   2.3884   3.0503   3.7806   3.8971   3.9970   4.2203   5.3373

     occupation numbers 
     1.0000   1.0000   1.0000   1.0000   1.0000   1.0000   1.0000   1.0000
     1.0000   1.0000   1.0000   1.0000   1.0000   1.0000   1.0000   1.0000

          k = 0.5000 0.7000 0.9000 (  1630 PWs)   bands (ev):

    -4.3525  -4.3523  -2.9477  -2.9476  -0.3381  -0.3381   1.3563   1.3563
     2.1218   2.1219   3.4549   3.4549   3.9025   3.9025   4.8002   4.8002

     occupation numbers 
     1.0000   1.0000   1.0000   1.0000   1.0000   1.0000   1.0000   1.0000
     1.0000   1.0000   1.0000   1.0000   1.0000   1.0000   1.0000   1.0000

          k = 0.6000 0.7000 0.9000 (  1625 PWs)   bands (ev):

    -4.7220  -3.9096  -3.1909  -2.6986  -0.5879  -0.0390   0.8162   1.9127
     1.9330   2.3884   3.0503   3.7806   3.8971   3.9970   4.2203   5.3373

     occupation numbers 
     1.0000   1.0000   1.0000   1.0000   1.0000   1.0000   1.0000   1.0000
     1.0000   1.0000   1.0000   1.0000   1.0000   1.0000   1.0000   1.0000

          k = 0.7000 0.7000 0.9000 (  1612 PWs)   bands (ev):

    -5.0136  -3.4013  -3.4012  -2.4802  -0.7633   0.2718   0.2718   1.8624
     2.4964   2.6884   2.6884   3.7156   3.7156   3.9284   4.3651   5.6564

     occupation numbers 
     1.0000   1.0000   1.0000   1.0000   1.0000   1.0000   1.0000   1.0000
     1.0000   1.0000   1.0000   1.0000   1.0000   1.0000   1.0000   1.0000

          k = 0.8000 0.7000 0.9000 (  1634 PWs)   bands (ev):

    -5.2241  -3.5614  -2.8388  -2.3263  -0.8572  -0.2973   0.5447   1.9425
     2.3872   2.9854   3.1026   3.3507   3.6122   3.7184   4.8240   5.6022

     occupation numbers 
     1.0000   1.0000   1.0000   1.0000   1.0000   1.0000   1.0000   1.0000
     1.0000   1.0000   1.0000   1.0000   1.0000   1.0000   1.0000   1.0000

          k = 0.9000 0.7000 0.9000 (  1644 PWs)   bands (ev):

    -5.3512  -3.6610  -2.2460  -2.2459  -0.8898  -0.8897   0.7298   2.1839
     2.1839   3.1397   3.1397   3.2681   3.6937   3.7028   5.1363   5.3101

     occupation numbers 
     1.0000   1.0000   1.0000   1.0000   1.0000   1.0000   1.0000   1.0000
     1.0000   1.0000   1.0000   1.0000   1.0000   1.0000   1.0000   1.0000

          k = 0.0000 0.8000 0.9000 (  1640 PWs)   bands (ev):

    -5.6111  -3.0790  -2.3280  -1.7533  -1.4685  -0.8729  -0.0477   2.4051
     2.8303   2.9905   3.2761   3.2945   3.3735   4.7636   5.3939   5.8791

     occupation numbers 
     1.0000   1.0000   1.0000   1.0000   1.0000   1.0000   1.0000   1.0000
     1.0000   1.0000   1.0000   1.0000   1.0000   1.0000   1.0000   1.0000

          k = 0.1000 0.8000 0.9000 (  1642 PWs)   bands (ev):

    -5.5679  -3.0505  -2.3216  -2.3215  -0.8748  -0.8747  -0.0742   2.4706
     2.4706   2.9985   3.3402   3.3403   3.5095   4.3673   5.5834   5.8026

     occupation numbers 
     1.0000   1.0000   1.0000   1.0000   1.0000   1.0000   1.0000   1.0000
     1.0000   1.0000   1.0000   1.0000   1.0000   1.0000   1.0000   1.0000

          k = 0.2000 0.8000 0.9000 (  1639 PWs)   bands (ev):

    -5.4385  -2.9675  -2.9675  -2.3120  -0.8757  -0.1571  -0.1570   2.1348
     2.6663   2.6664   3.4794   3.4794   3.5988   3.7425   5.2853   5.8713

     occupation numbers 
     1.0000   1.0000   1.0000   1.0000   1.0000   1.0000   1.0000   1.0000
     1.0000   1.0000   1.0000   1.0000   1.0000   1.0000   1.0000   1.0000

          k = 0.3000 0.8000 0.9000 (  1634 PWs)   bands (ev):

    -5.2241  -3.5614  -2.8388  -2.3263  -0.8572  -0.2973   0.5447   1.9425
     2.3872   2.9854   3.1026   3.3507   3.6122   3.7184   4.8240   5.6022

     occupation numbers 
     1.0000   1.0000   1.0000   1.0000   1.0000   1.0000   1.0000   1.0000
     1.0000   1.0000   1.0000   1.0000   1.0000   1.0000   1.0000   1.0000

          k = 0.4000 0.8000 0.9000 (  1629 PWs)   bands (ev):

    -4.9260  -4.0904  -2.6812  -2.3944  -0.7882  -0.4763   1.2124   1.9042
     2.1638   2.4731   3.2769   3.4006   3.4727   4.0701   4.3421   5.0911

     occupation numbers 
     1.0000   1.0000   1.0000   1.0000   1.0000   1.0000   1.0000   1.0000
     1.0000   1.0000   1.0000   1.0000   1.0000   1.0000   1.0000   1.0000

          k = 0.5000 0.8000 0.9000 (  1638 PWs)   bands (ev):

    -4.5471  -4.5470  -2.5216  -2.5215  -0.6543  -0.6542   1.8489   1.8490
     1.9926   1.9927   3.3278   3.3279   3.8642   3.8643   4.5410   4.5410

     occupation numbers 
     1.0000   1.0000   1.0000   1.0000   1.0000   1.0000   1.0000   1.0000
     1.0000   1.0000   1.0000   1.0000   1.0000   1.0000   1.0000   1.0000

          k = 0.6000 0.8000 0.9000 (  1629 PWs)   bands (ev):

    -4.9260  -4.0904  -2.6812  -2.3944  -0.7882  -0.4763   1.2124   1.9042
     2.1638   2.4731   3.2769   3.4006   3.4727   4.0701   4.3421   5.0911

     occupation numbers 
     1.0000   1.0000   1.0000   1.0000   1.0000   1.0000   1.0000   1.0000
     1.0000   1.0000   1.0000   1.0000   1.0000   1.0000   1.0000   1.0000

          k = 0.7000 0.8000 0.9000 (  1634 PWs)   bands (ev):

    -5.2241  -3.5614  -2.8388  -2.3263  -0.8572  -0.2973   0.5447   1.9425
     2.3872   2.9854   3.1026   3.3507   3.6122   3.7184   4.8240   5.6022

     occupation numbers 
     1.0000   1.0000   1.0000   1.0000   1.0000   1.0000   1.0000   1.0000
     1.0000   1.0000   1.0000   1.0000   1.0000   1.0000   1.0000   1.0000

          k = 0.8000 0.8000 0.9000 (  1639 PWs)   bands (ev):

    -5.4385  -2.9675  -2.9675  -2.3120  -0.8757  -0.1571  -0.1570   2.1348
     2.6663   2.6664   3.4794   3.4794   3.5988   3.7425   5.2853   5.8713

     occupation numbers 
     1.0000   1.0000   1.0000   1.0000   1.0000   1.0000   1.0000   1.0000
     1.0000   1.0000   1.0000   1.0000   1.0000   1.0000   1.0000   1.0000

          k = 0.9000 0.8000 0.9000 (  1642 PWs)   bands (ev):

    -5.5679  -3.0505  -2.3216  -2.3215  -0.8748  -0.8747  -0.0742   2.4706
     2.4706   2.9985   3.3402   3.3403   3.5095   4.3673   5.5834   5.8026

     occupation numbers 
     1.0000   1.0000   1.0000   1.0000   1.0000   1.0000   1.0000   1.0000
     1.0000   1.0000   1.0000   1.0000   1.0000   1.0000   1.0000   1.0000

          k = 0.0000 0.9000 0.9000 (  1637 PWs)   bands (ev):

    -5.7421  -2.3973  -2.3972  -1.7118  -1.5777  -0.8700  -0.8699   2.7858
     3.1723   3.1723   3.2196   3.2196   3.3535   5.4176   5.8044   6.1248

     occupation numbers 
     1.0000   1.0000   1.0000   1.0000   1.0000   1.0000   1.0000   1.0000
     1.0000   1.0000   1.0000   1.0000   1.0000   1.0000   1.0000   1.0000

          k = 0.1000 0.9000 0.9000 (  1650 PWs)   bands (ev):

    -5.6984  -2.3774  -2.3772  -2.3772  -0.8704  -0.8703  -0.8703   2.8387
     2.8387   2.8387   3.3924   3.3924   3.3925   5.0049   5.9625   5.9625

     occupation numbers 
     1.0000   1.0000   1.0000   1.0000   1.0000   1.0000   1.0000   1.0000
     1.0000   1.0000   1.0000   1.0000   1.0000   1.0000   1.0000   1.0000

          k = 0.2000 0.9000 0.9000 (  1642 PWs)   bands (ev):

    -5.5679  -3.0505  -2.3216  -2.3215  -0.8748  -0.8747  -0.0742   2.4706
     2.4706   2.9985   3.3402   3.3403   3.5095   4.3673   5.5834   5.8026

     occupation numbers 
     1.0000   1.0000   1.0000   1.0000   1.0000   1.0000   1.0000   1.0000
     1.0000   1.0000   1.0000   1.0000   1.0000   1.0000   1.0000   1.0000

          k = 0.3000 0.9000 0.9000 (  1644 PWs)   bands (ev):

    -5.3512  -3.6610  -2.2460  -2.2459  -0.8898  -0.8897   0.7298   2.1839
     2.1839   3.1397   3.1397   3.2681   3.6937   3.7028   5.1363   5.3101

     occupation numbers 
     1.0000   1.0000   1.0000   1.0000   1.0000   1.0000   1.0000   1.0000
     1.0000   1.0000   1.0000   1.0000   1.0000   1.0000   1.0000   1.0000

          k = 0.4000 0.9000 0.9000 (  1631 PWs)   bands (ev):

    -5.0496  -4.2011  -2.1773  -2.1772  -0.9119  -0.9119   1.5198   2.0165
     2.0165   2.9473   2.9473   3.0000   3.6498   3.9694   4.6991   4.7129

     occupation numbers 
     1.0000   1.0000   1.0000   1.0000   1.0000   1.0000   1.0000   1.0000
     1.0000   1.0000   1.0000   1.0000   1.0000   1.0000   1.0000   1.0000

          k = 0.5000 0.9000 0.9000 (  1626 PWs)   bands (ev):

    -4.6653  -4.6652  -2.1489  -2.1488  -0.9234  -0.9233   1.9642   1.9642
     2.2782   2.2782   2.8699   2.8699   4.1393   4.1394   4.3043   4.3044

     occupation numbers 
     1.0000   1.0000   1.0000   1.0000   1.0000   1.0000   1.0000   1.0000
     1.0000   1.0000   1.0000   1.0000   1.0000   1.0000   1.0000   1.0000

          k = 0.6000 0.9000 0.9000 (  1631 PWs)   bands (ev):

    -5.0496  -4.2011  -2.1773  -2.1772  -0.9119  -0.9119   1.5198   2.0165
     2.0165   2.9473   2.9473   3.0000   3.6498   3.9694   4.6991   4.7129

     occupation numbers 
     1.0000   1.0000   1.0000   1.0000   1.0000   1.0000   1.0000   1.0000
     1.0000   1.0000   1.0000   1.0000   1.0000   1.0000   1.0000   1.0000

          k = 0.7000 0.9000 0.9000 (  1644 PWs)   bands (ev):

    -5.3512  -3.6610  -2.2460  -2.2459  -0.8898  -0.8897   0.7298   2.1839
     2.1839   3.1397   3.1397   3.2681   3.6937   3.7028   5.1363   5.3101

     occupation numbers 
     1.0000   1.0000   1.0000   1.0000   1.0000   1.0000   1.0000   1.0000
     1.0000   1.0000   1.0000   1.0000   1.0000   1.0000   1.0000   1.0000

          k = 0.8000 0.9000 0.9000 (  1642 PWs)   bands (ev):

    -5.5679  -3.0505  -2.3216  -2.3215  -0.8748  -0.8747  -0.0742   2.4706
     2.4706   2.9985   3.3402   3.3403   3.5095   4.3673   5.5834   5.8026

     occupation numbers 
     1.0000   1.0000   1.0000   1.0000   1.0000   1.0000   1.0000   1.0000
     1.0000   1.0000   1.0000   1.0000   1.0000   1.0000   1.0000   1.0000

          k = 0.9000 0.9000 0.9000 (  1650 PWs)   bands (ev):

    -5.6984  -2.3774  -2.3772  -2.3772  -0.8704  -0.8703  -0.8703   2.8387
     2.8387   2.8387   3.3924   3.3924   3.3925   5.0049   5.9625   5.9625

     occupation numbers 
     1.0000   1.0000   1.0000   1.0000   1.0000   1.0000   1.0000   1.0000
     1.0000   1.0000   1.0000   1.0000   1.0000   1.0000   1.0000   1.0000

     highest occupied level (ev):     6.1644

     Writing all to output data dir ./outputs/Si.save/

 %%%%%%%%%%%%%%%%%%%%%%%%%%%%%%%%%%%%%%%%%%%%%%%%%%%%%%%%%%%%%%%%%%%%%%%%%%%%%%
     Error in routine create_directory (1):
     unable to create directory ./outputs/Si.save/
 %%%%%%%%%%%%%%%%%%%%%%%%%%%%%%%%%%%%%%%%%%%%%%%%%%%%%%%%%%%%%%%%%%%%%%%%%%%%%%

 %%%%%%%%%%%%%%%%%%%%%%%%%%%%%%%%%%%%%%%%%%%%%%%%%%%%%%%%%%%%%%%%%%%%%%%%%%%%%%
     Error in routine create_directory (1):
     unable to create directory ./outputs/Si.save/
 %%%%%%%%%%%%%%%%%%%%%%%%%%%%%%%%%%%%%%%%%%%%%%%%%%%%%%%%%%%%%%%%%%%%%%%%%%%%%%

     stopping ...

 %%%%%%%%%%%%%%%%%%%%%%%%%%%%%%%%%%%%%%%%%%%%%%%%%%%%%%%%%%%%%%%%%%%%%%%%%%%%%%
     Error in routine create_directory (1):
     unable to create directory ./outputs/Si.save/
 %%%%%%%%%%%%%%%%%%%%%%%%%%%%%%%%%%%%%%%%%%%%%%%%%%%%%%%%%%%%%%%%%%%%%%%%%%%%%%

     stopping ...

 %%%%%%%%%%%%%%%%%%%%%%%%%%%%%%%%%%%%%%%%%%%%%%%%%%%%%%%%%%%%%%%%%%%%%%%%%%%%%%
     Error in routine create_directory (1):
     unable to create directory ./outputs/Si.save/
 %%%%%%%%%%%%%%%%%%%%%%%%%%%%%%%%%%%%%%%%%%%%%%%%%%%%%%%%%%%%%%%%%%%%%%%%%%%%%%

     stopping ...

 %%%%%%%%%%%%%%%%%%%%%%%%%%%%%%%%%%%%%%%%%%%%%%%%%%%%%%%%%%%%%%%%%%%%%%%%%%%%%%
     Error in routine create_directory (1):
     unable to create directory ./outputs/Si.save/
 %%%%%%%%%%%%%%%%%%%%%%%%%%%%%%%%%%%%%%%%%%%%%%%%%%%%%%%%%%%%%%%%%%%%%%%%%%%%%%

     stopping ...

 %%%%%%%%%%%%%%%%%%%%%%%%%%%%%%%%%%%%%%%%%%%%%%%%%%%%%%%%%%%%%%%%%%%%%%%%%%%%%%
     Error in routine create_directory (1):
     unable to create directory ./outputs/Si.save/
 %%%%%%%%%%%%%%%%%%%%%%%%%%%%%%%%%%%%%%%%%%%%%%%%%%%%%%%%%%%%%%%%%%%%%%%%%%%%%%

     stopping ...

 %%%%%%%%%%%%%%%%%%%%%%%%%%%%%%%%%%%%%%%%%%%%%%%%%%%%%%%%%%%%%%%%%%%%%%%%%%%%%%
     Error in routine create_directory (1):
     unable to create directory ./outputs/Si.save/
 %%%%%%%%%%%%%%%%%%%%%%%%%%%%%%%%%%%%%%%%%%%%%%%%%%%%%%%%%%%%%%%%%%%%%%%%%%%%%%

     stopping ...

 %%%%%%%%%%%%%%%%%%%%%%%%%%%%%%%%%%%%%%%%%%%%%%%%%%%%%%%%%%%%%%%%%%%%%%%%%%%%%%
     Error in routine create_directory (1):
     unable to create directory ./outputs/Si.save/
 %%%%%%%%%%%%%%%%%%%%%%%%%%%%%%%%%%%%%%%%%%%%%%%%%%%%%%%%%%%%%%%%%%%%%%%%%%%%%%

     stopping ...

 %%%%%%%%%%%%%%%%%%%%%%%%%%%%%%%%%%%%%%%%%%%%%%%%%%%%%%%%%%%%%%%%%%%%%%%%%%%%%%
     Error in routine create_directory (1):
     unable to create directory ./outputs/Si.save/
 %%%%%%%%%%%%%%%%%%%%%%%%%%%%%%%%%%%%%%%%%%%%%%%%%%%%%%%%%%%%%%%%%%%%%%%%%%%%%%

     stopping ...

 %%%%%%%%%%%%%%%%%%%%%%%%%%%%%%%%%%%%%%%%%%%%%%%%%%%%%%%%%%%%%%%%%%%%%%%%%%%%%%
     Error in routine create_directory (1):
     unable to create directory ./outputs/Si.save/
 %%%%%%%%%%%%%%%%%%%%%%%%%%%%%%%%%%%%%%%%%%%%%%%%%%%%%%%%%%%%%%%%%%%%%%%%%%%%%%

     stopping ...

 %%%%%%%%%%%%%%%%%%%%%%%%%%%%%%%%%%%%%%%%%%%%%%%%%%%%%%%%%%%%%%%%%%%%%%%%%%%%%%
     Error in routine create_directory (1):
     unable to create directory ./outputs/Si.save/
 %%%%%%%%%%%%%%%%%%%%%%%%%%%%%%%%%%%%%%%%%%%%%%%%%%%%%%%%%%%%%%%%%%%%%%%%%%%%%%

     stopping ...

 %%%%%%%%%%%%%%%%%%%%%%%%%%%%%%%%%%%%%%%%%%%%%%%%%%%%%%%%%%%%%%%%%%%%%%%%%%%%%%
     Error in routine create_directory (1):
     unable to create directory ./outputs/Si.save/
 %%%%%%%%%%%%%%%%%%%%%%%%%%%%%%%%%%%%%%%%%%%%%%%%%%%%%%%%%%%%%%%%%%%%%%%%%%%%%%

     stopping ...

 %%%%%%%%%%%%%%%%%%%%%%%%%%%%%%%%%%%%%%%%%%%%%%%%%%%%%%%%%%%%%%%%%%%%%%%%%%%%%%
     Error in routine create_directory (1):
     unable to create directory ./outputs/Si.save/
 %%%%%%%%%%%%%%%%%%%%%%%%%%%%%%%%%%%%%%%%%%%%%%%%%%%%%%%%%%%%%%%%%%%%%%%%%%%%%%

     stopping ...

 %%%%%%%%%%%%%%%%%%%%%%%%%%%%%%%%%%%%%%%%%%%%%%%%%%%%%%%%%%%%%%%%%%%%%%%%%%%%%%
     Error in routine create_directory (1):
     unable to create directory ./outputs/Si.save/
 %%%%%%%%%%%%%%%%%%%%%%%%%%%%%%%%%%%%%%%%%%%%%%%%%%%%%%%%%%%%%%%%%%%%%%%%%%%%%%

     stopping ...

     stopping ...
