
     Program PROJWFC v.6.7GPU starts on 16Jun2021 at 17:32: 4 

     This program is part of the open-source Quantum ESPRESSO suite
     for quantum simulation of materials; please cite
         "P. Giannozzi et al., J. Phys.:Condens. Matter 21 395502 (2009);
         "P. Giannozzi et al., J. Phys.:Condens. Matter 29 465901 (2017);
         "P. Giannozzi et al., J. Chem. Phys. 152 154105 (2020);
          URL http://www.quantum-espresso.org", 
     in publications or presentations arising from this work. More details at
     http://www.quantum-espresso.org/quote

     Parallel version (MPI), running on     4 processors

     MPI processes distributed on     1 nodes
     R & G space division:  proc/nbgrp/npool/nimage =       4

     Reading xml data from directory:

     /home/ponet/.julia/dev/DFControl/docs/build/guide/Job2/outputs/Si.save/
     file Si.pbesol-n-kjpaw_psl.0.1.UPF: wavefunction(s)  3S renormalized

     IMPORTANT: XC functional enforced from input :
     Exchange-correlation= PBESOL
                           (   1   4  10   8   0   0   0)
     Any further DFT definition will be discarded
     Please, verify this is what you really want


     Parallelization info
     --------------------
     sticks:   dense  smooth     PW     G-vecs:    dense   smooth      PW
     Min         168     168     60                 3282     3282     700
     Max         169     169     61                 3284     3284     701
     Sum         673     673    241                13133    13133    2801

     Using Slab Decomposition


     Check: negative core charge=   -0.000010

     Gaussian broadening (default values): ngauss,degauss=   0    0.007350


     Calling projwave .... 

     Subspace diagonalization in iterative solution of the eigenvalue problem:
     one sub-group per band group will be used
     scalapack distributed-memory algorithm (size of sub-group:  2*  2 procs)

     linear algebra parallelized on   4 procs

  Problem Sizes 
  natomwfc =           32
  nx       =           16
  nbnd     =           16
  nkstot   =          216
  npwx     =          426
  nkb      =           64


     Atomic states used for projection
     (read from pseudopotential files):

     state #   1: atom   1 (Si ), wfc  1 (l=0 m= 1)
     state #   2: atom   1 (Si ), wfc  2 (l=1 m= 1)
     state #   3: atom   1 (Si ), wfc  2 (l=1 m= 2)
     state #   4: atom   1 (Si ), wfc  2 (l=1 m= 3)
     state #   5: atom   2 (Si ), wfc  1 (l=0 m= 1)
     state #   6: atom   2 (Si ), wfc  2 (l=1 m= 1)
     state #   7: atom   2 (Si ), wfc  2 (l=1 m= 2)
     state #   8: atom   2 (Si ), wfc  2 (l=1 m= 3)
     state #   9: atom   3 (Si ), wfc  1 (l=0 m= 1)
     state #  10: atom   3 (Si ), wfc  2 (l=1 m= 1)
     state #  11: atom   3 (Si ), wfc  2 (l=1 m= 2)
     state #  12: atom   3 (Si ), wfc  2 (l=1 m= 3)
     state #  13: atom   4 (Si ), wfc  1 (l=0 m= 1)
     state #  14: atom   4 (Si ), wfc  2 (l=1 m= 1)
     state #  15: atom   4 (Si ), wfc  2 (l=1 m= 2)
     state #  16: atom   4 (Si ), wfc  2 (l=1 m= 3)
     state #  17: atom   5 (Si ), wfc  1 (l=0 m= 1)
     state #  18: atom   5 (Si ), wfc  2 (l=1 m= 1)
     state #  19: atom   5 (Si ), wfc  2 (l=1 m= 2)
     state #  20: atom   5 (Si ), wfc  2 (l=1 m= 3)
     state #  21: atom   6 (Si ), wfc  1 (l=0 m= 1)
     state #  22: atom   6 (Si ), wfc  2 (l=1 m= 1)
     state #  23: atom   6 (Si ), wfc  2 (l=1 m= 2)
     state #  24: atom   6 (Si ), wfc  2 (l=1 m= 3)
     state #  25: atom   7 (Si ), wfc  1 (l=0 m= 1)
     state #  26: atom   7 (Si ), wfc  2 (l=1 m= 1)
     state #  27: atom   7 (Si ), wfc  2 (l=1 m= 2)
     state #  28: atom   7 (Si ), wfc  2 (l=1 m= 3)
     state #  29: atom   8 (Si ), wfc  1 (l=0 m= 1)
     state #  30: atom   8 (Si ), wfc  2 (l=1 m= 1)
     state #  31: atom   8 (Si ), wfc  2 (l=1 m= 2)
     state #  32: atom   8 (Si ), wfc  2 (l=1 m= 3)

 k =   0.0000000000  0.0000000000  0.0000000000
==== e(   1) =    -5.82942 eV ==== 
     psi = 0.124*[#   5]+0.124*[#   9]+0.124*[#  13]+0.124*[#  17]+0.124*[#  21]
          +0.124*[#  25]+0.124*[#  29]+0.124*[#   1]
    |psi|^2 = 0.992
==== e(   2) =    -1.66897 eV ==== 
     psi = 0.145*[#   9]+0.145*[#  17]+0.145*[#  21]+0.145*[#  25]+0.020*[#   2]
          +0.020*[#   3]+0.020*[#   4]+0.020*[#   6]+0.020*[#   7]+0.020*[#   8]
          +0.020*[#  14]+0.020*[#  15]+0.020*[#  16]+0.020*[#  30]+0.020*[#  31]
          +0.020*[#  32]
    |psi|^2 = 0.823
==== e(   3) =    -1.66897 eV ==== 
     psi = 0.145*[#   9]+0.145*[#  17]+0.145*[#  21]+0.145*[#  25]+0.029*[#   2]
          +0.029*[#   3]+0.029*[#   4]+0.029*[#   6]+0.029*[#   7]+0.029*[#   8]
          +0.029*[#  14]+0.029*[#  15]+0.029*[#  16]+0.029*[#  30]+0.029*[#  31]
          +0.029*[#  32]
    |psi|^2 = 0.931
==== e(   4) =    -1.66897 eV ==== 
     psi = 0.145*[#   9]+0.145*[#  17]+0.145*[#  21]+0.145*[#  25]+0.039*[#   2]
          +0.039*[#   3]+0.039*[#   4]+0.039*[#   6]+0.039*[#   7]+0.039*[#   8]
          +0.039*[#  14]+0.039*[#  15]+0.039*[#  16]+0.039*[#  30]+0.039*[#  31]
          +0.039*[#  32]
    |psi|^2 = 1.048
==== e(   5) =    -1.66885 eV ==== 
     psi = 0.193*[#   5]+0.193*[#  13]+0.193*[#  29]+0.034*[#  10]+0.034*[#  11]
          +0.034*[#  12]+0.034*[#  18]+0.034*[#  19]+0.034*[#  20]+0.034*[#  22]
          +0.034*[#  23]+0.034*[#  24]+0.034*[#  26]+0.034*[#  27]+0.034*[#  28]
          
    |psi|^2 = 0.993
==== e(   6) =    -1.66885 eV ==== 
     psi = 0.193*[#   5]+0.193*[#  13]+0.193*[#  29]+0.028*[#  10]+0.028*[#  11]
          +0.028*[#  12]+0.028*[#  18]+0.028*[#  19]+0.028*[#  20]+0.028*[#  22]
          +0.028*[#  23]+0.028*[#  24]+0.028*[#  26]+0.028*[#  27]+0.028*[#  28]
          
    |psi|^2 = 0.911
==== e(   7) =    -1.66679 eV ==== 
     psi = 0.434*[#   1]+0.048*[#   5]+0.048*[#  13]+0.048*[#  29]+0.046*[#  10]
          +0.046*[#  11]+0.046*[#  12]+0.046*[#  18]+0.046*[#  19]+0.046*[#  20]
          +0.046*[#  22]+0.046*[#  23]+0.046*[#  24]+0.046*[#  26]+0.046*[#  27]
          +0.046*[#  28]
    |psi|^2 = 1.130
==== e(   8) =     3.28861 eV ==== 
     psi = 0.039*[#  10]+0.039*[#  11]+0.039*[#  12]+0.039*[#  18]+0.039*[#  19]
          +0.039*[#  20]+0.039*[#  22]+0.039*[#  23]+0.039*[#  24]+0.039*[#  26]
          +0.039*[#  27]+0.039*[#  28]+0.036*[#   6]+0.036*[#   8]+0.036*[#  14]
          +0.036*[#  15]+0.036*[#  31]+0.036*[#  32]
    |psi|^2 = 0.689
==== e(   9) =     3.28861 eV ==== 
     psi = 0.083*[#   6]+0.083*[#   8]+0.083*[#  14]+0.083*[#  15]+0.083*[#  31]
          +0.083*[#  32]+0.041*[#  10]+0.041*[#  11]+0.041*[#  12]+0.041*[#  18]
          +0.041*[#  19]+0.041*[#  20]+0.041*[#  22]+0.041*[#  23]+0.041*[#  24]
          +0.041*[#  26]+0.041*[#  27]+0.041*[#  28]
    |psi|^2 = 0.994
==== e(  10) =     3.28861 eV ==== 
     psi = 0.087*[#   6]+0.087*[#   8]+0.087*[#  14]+0.087*[#  15]+0.087*[#  31]
          +0.087*[#  32]+0.057*[#   7]+0.057*[#  16]+0.057*[#  30]+0.033*[#  10]
          +0.033*[#  11]+0.033*[#  12]+0.033*[#  18]+0.033*[#  19]+0.033*[#  20]
          +0.033*[#  22]+0.033*[#  23]+0.033*[#  24]+0.033*[#  26]+0.033*[#  27]
          +0.033*[#  28]
    |psi|^2 = 1.093
==== e(  11) =     3.28934 eV ==== 
     psi = 0.082*[#   2]+0.082*[#   3]+0.082*[#   4]+0.082*[#   7]+0.082*[#  16]
          +0.082*[#  30]+0.036*[#  10]+0.036*[#  11]+0.036*[#  12]+0.036*[#  18]
          +0.036*[#  19]+0.036*[#  20]+0.036*[#  22]+0.036*[#  23]+0.036*[#  24]
          +0.036*[#  26]+0.036*[#  27]+0.036*[#  28]+0.024*[#   6]+0.024*[#   8]
          +0.024*[#  14]+0.024*[#  15]+0.024*[#  31]+0.024*[#  32]
    |psi|^2 = 1.063
==== e(  12) =     3.28934 eV ==== 
     psi = 0.052*[#  10]+0.052*[#  11]+0.052*[#  12]+0.052*[#  18]+0.052*[#  19]
          +0.052*[#  20]+0.052*[#  22]+0.052*[#  23]+0.052*[#  24]+0.052*[#  26]
          +0.052*[#  27]+0.052*[#  28]+0.041*[#   7]+0.041*[#  16]+0.041*[#  30]
          +0.022*[#   2]+0.022*[#   3]+0.022*[#   4]+0.009*[#   6]+0.009*[#   8]
          +0.009*[#  14]+0.009*[#  15]+0.009*[#  31]+0.009*[#  32]
    |psi|^2 = 0.868
==== e(  13) =     3.28934 eV ==== 
     psi = 0.083*[#   2]+0.083*[#   3]+0.083*[#   4]+0.083*[#   7]+0.083*[#  16]
          +0.083*[#  30]+0.041*[#  10]+0.041*[#  11]+0.041*[#  12]+0.041*[#  18]
          +0.041*[#  19]+0.041*[#  20]+0.041*[#  22]+0.041*[#  23]+0.041*[#  24]
          +0.041*[#  26]+0.041*[#  27]+0.041*[#  28]
    |psi|^2 = 0.994
==== e(  14) =     6.17328 eV ==== 
     psi = 0.046*[#  10]+0.046*[#  11]+0.046*[#  12]+0.046*[#  18]+0.046*[#  19]
          +0.046*[#  20]+0.046*[#  22]+0.046*[#  23]+0.046*[#  24]+0.046*[#  26]
          +0.046*[#  27]+0.046*[#  28]+0.044*[#   2]+0.044*[#   3]+0.044*[#   4]
          +0.036*[#   6]+0.036*[#   8]+0.036*[#  14]+0.036*[#  15]+0.036*[#  31]
          +0.036*[#  32]+0.029*[#   7]+0.029*[#  16]+0.029*[#  30]
    |psi|^2 = 0.980
==== e(  15) =     6.17328 eV ==== 
     psi = 0.036*[#   2]+0.036*[#   3]+0.036*[#   4]+0.036*[#   6]+0.036*[#   7]
          +0.036*[#   8]+0.036*[#  10]+0.036*[#  11]+0.036*[#  12]+0.036*[#  14]
          +0.036*[#  15]+0.036*[#  16]+0.036*[#  18]+0.036*[#  19]+0.036*[#  20]
          +0.036*[#  22]+0.036*[#  23]+0.036*[#  24]+0.036*[#  26]+0.036*[#  27]
          +0.036*[#  28]+0.036*[#  30]+0.036*[#  31]+0.036*[#  32]
    |psi|^2 = 0.859
==== e(  16) =     6.17328 eV ==== 
     psi = 0.037*[#   2]+0.037*[#   3]+0.037*[#   4]+0.037*[#   6]+0.037*[#   7]
          +0.037*[#   8]+0.037*[#  10]+0.037*[#  11]+0.037*[#  12]+0.037*[#  14]
          +0.037*[#  15]+0.037*[#  16]+0.037*[#  18]+0.037*[#  19]+0.037*[#  20]
          +0.037*[#  22]+0.037*[#  23]+0.037*[#  24]+0.037*[#  26]+0.037*[#  27]
          +0.037*[#  28]+0.037*[#  30]+0.037*[#  31]+0.037*[#  32]
    |psi|^2 = 0.882

 k =   0.1666666667  0.0000000000  0.0000000000
==== e(   1) =    -5.70745 eV ==== 
     psi = 0.117*[#   5]+0.117*[#   9]+0.117*[#  13]+0.117*[#  17]+0.117*[#  21]
          +0.117*[#  25]+0.117*[#  29]+0.117*[#   1]+0.002*[#   2]+0.002*[#   3]
          +0.002*[#   4]+0.002*[#   6]+0.002*[#   7]+0.002*[#   8]+0.002*[#  10]
          +0.002*[#  11]+0.002*[#  12]+0.002*[#  14]+0.002*[#  15]+0.002*[#  16]
          +0.002*[#  18]+0.002*[#  19]+0.002*[#  20]+0.002*[#  22]+0.002*[#  23]
          +0.002*[#  24]+0.002*[#  26]+0.002*[#  27]+0.002*[#  28]+0.002*[#  30]
          +0.002*[#  31]+0.002*[#  32]
    |psi|^2 = 0.993
==== e(   2) =    -2.88416 eV ==== 
     psi = 0.077*[#   5]+0.077*[#   9]+0.077*[#  13]+0.077*[#  17]+0.077*[#  21]
          +0.077*[#  25]+0.077*[#  29]+0.076*[#   1]+0.018*[#   2]+0.018*[#   3]
          +0.018*[#   4]+0.018*[#   6]+0.018*[#   7]+0.018*[#   8]+0.018*[#  10]
          +0.018*[#  11]+0.018*[#  12]+0.018*[#  14]+0.018*[#  15]+0.018*[#  16]
          +0.018*[#  18]+0.018*[#  19]+0.018*[#  20]+0.018*[#  22]+0.018*[#  23]
          +0.018*[#  24]+0.018*[#  26]+0.018*[#  27]+0.018*[#  28]+0.018*[#  30]
          +0.018*[#  31]+0.018*[#  32]
    |psi|^2 = 1.050
==== e(   3) =    -1.62947 eV ==== 
     psi = 0.147*[#   9]+0.147*[#  17]+0.147*[#  21]+0.147*[#  25]+0.009*[#   7]
          +0.009*[#  16]+0.009*[#  30]+0.008*[#   6]+0.008*[#   8]+0.008*[#  14]
          +0.008*[#  15]+0.008*[#  31]+0.008*[#  32]+0.006*[#   2]+0.006*[#   3]
          +0.006*[#   4]
    |psi|^2 = 0.678
==== e(   4) =    -1.62947 eV ==== 
     psi = 0.147*[#   9]+0.147*[#  17]+0.147*[#  21]+0.147*[#  25]+0.044*[#   2]
          +0.044*[#   3]+0.044*[#   4]+0.042*[#   6]+0.042*[#   8]+0.042*[#  14]
          +0.042*[#  15]+0.042*[#  31]+0.042*[#  32]+0.040*[#   7]+0.040*[#  16]
          +0.040*[#  30]+0.016*[#  10]+0.016*[#  11]+0.016*[#  12]+0.016*[#  18]
          +0.016*[#  19]+0.016*[#  20]+0.016*[#  22]+0.016*[#  23]+0.016*[#  24]
          +0.016*[#  26]+0.016*[#  27]+0.016*[#  28]
    |psi|^2 = 1.284
==== e(   5) =    -1.62936 eV ==== 
     psi = 0.196*[#   5]+0.196*[#  13]+0.196*[#  29]+0.034*[#  10]+0.034*[#  11]
          +0.034*[#  12]+0.034*[#  18]+0.034*[#  19]+0.034*[#  20]+0.034*[#  22]
          +0.034*[#  23]+0.034*[#  24]+0.034*[#  26]+0.034*[#  27]+0.034*[#  28]
          
    |psi|^2 = 0.993
==== e(   6) =    -1.62795 eV ==== 
     psi = 0.294*[#   1]+0.098*[#   5]+0.098*[#  13]+0.098*[#  29]+0.017*[#  10]
          +0.017*[#  11]+0.017*[#  12]+0.017*[#  18]+0.017*[#  19]+0.017*[#  20]
          +0.017*[#  22]+0.017*[#  23]+0.017*[#  24]+0.017*[#  26]+0.017*[#  27]
          +0.017*[#  28]
    |psi|^2 = 0.791
==== e(   7) =    -0.30800 eV ==== 
     psi = 0.068*[#   1]+0.068*[#   5]+0.068*[#   9]+0.068*[#  13]+0.068*[#  17]
          +0.068*[#  21]+0.068*[#  25]+0.068*[#  29]+0.036*[#  10]+0.036*[#  11]
          +0.036*[#  12]+0.036*[#  18]+0.036*[#  19]+0.036*[#  20]+0.036*[#  22]
          +0.036*[#  23]+0.036*[#  24]+0.036*[#  26]+0.036*[#  27]+0.036*[#  28]
          +0.019*[#   2]+0.019*[#   3]+0.019*[#   4]+0.019*[#   6]+0.019*[#   7]
          +0.019*[#   8]+0.019*[#  14]+0.019*[#  15]+0.019*[#  16]+0.019*[#  30]
          +0.019*[#  31]+0.019*[#  32]
    |psi|^2 = 1.195
==== e(   8) =     2.97062 eV ==== 
     psi = 0.075*[#   6]+0.075*[#   8]+0.075*[#  14]+0.075*[#  15]+0.075*[#  31]
          +0.075*[#  32]+0.022*[#  10]+0.022*[#  11]+0.022*[#  12]+0.022*[#  18]
          +0.022*[#  19]+0.022*[#  20]+0.022*[#  22]+0.022*[#  23]+0.022*[#  24]
          +0.022*[#  26]+0.022*[#  27]+0.022*[#  28]+0.004*[#   5]+0.004*[#  13]
          +0.004*[#  29]
    |psi|^2 = 0.727
==== e(   9) =     2.97089 eV ==== 
     psi = 0.045*[#   6]+0.045*[#   8]+0.045*[#  14]+0.045*[#  15]+0.045*[#  31]
          +0.045*[#  32]+0.044*[#   2]+0.044*[#   3]+0.044*[#   4]+0.044*[#   7]
          +0.044*[#  16]+0.044*[#  30]+0.037*[#  10]+0.037*[#  11]+0.037*[#  12]
          +0.037*[#  18]+0.037*[#  19]+0.037*[#  20]+0.037*[#  22]+0.037*[#  23]
          +0.037*[#  24]+0.037*[#  26]+0.037*[#  27]+0.037*[#  28]+0.003*[#   9]
          +0.003*[#  17]+0.003*[#  21]+0.003*[#  25]
    |psi|^2 = 0.993
==== e(  10) =     2.97089 eV ==== 
     psi = 0.075*[#  10]+0.075*[#  11]+0.075*[#  12]+0.075*[#  18]+0.075*[#  19]
          +0.075*[#  20]+0.075*[#  22]+0.075*[#  23]+0.075*[#  24]+0.075*[#  26]
          +0.075*[#  27]+0.075*[#  28]+0.011*[#   2]+0.011*[#   3]+0.011*[#   4]
          +0.009*[#   6]+0.009*[#   8]+0.009*[#  14]+0.009*[#  15]+0.009*[#  31]
          +0.009*[#  32]+0.007*[#   7]+0.007*[#  16]+0.007*[#  30]+0.003*[#   9]
          +0.003*[#  17]+0.003*[#  21]+0.003*[#  25]
    |psi|^2 = 1.014
==== e(  11) =     2.97118 eV ==== 
     psi = 0.112*[#   7]+0.112*[#  16]+0.112*[#  30]+0.108*[#   2]+0.108*[#   3]
          +0.108*[#   4]+0.036*[#   6]+0.036*[#   8]+0.036*[#  14]+0.036*[#  15]
          +0.036*[#  31]+0.036*[#  32]+0.022*[#  10]+0.022*[#  11]+0.022*[#  12]
          +0.022*[#  18]+0.022*[#  19]+0.022*[#  20]+0.022*[#  22]+0.022*[#  23]
          +0.022*[#  24]+0.022*[#  26]+0.022*[#  27]+0.022*[#  28]+0.006*[#   1]
          +0.002*[#   5]+0.002*[#  13]+0.002*[#  29]
    |psi|^2 = 1.153
==== e(  12) =     3.39927 eV ==== 
     psi = 0.053*[#  10]+0.053*[#  11]+0.053*[#  12]+0.053*[#  18]+0.053*[#  19]
          +0.053*[#  20]+0.053*[#  22]+0.053*[#  23]+0.053*[#  24]+0.053*[#  26]
          +0.053*[#  27]+0.053*[#  28]+0.025*[#   2]+0.025*[#   3]+0.025*[#   4]
          +0.025*[#   6]+0.025*[#   7]+0.025*[#   8]+0.025*[#  14]+0.025*[#  15]
          +0.025*[#  16]+0.025*[#  30]+0.025*[#  31]+0.025*[#  32]
    |psi|^2 = 0.941
==== e(  13) =     3.39927 eV ==== 
     psi = 0.041*[#   2]+0.041*[#   3]+0.041*[#   4]+0.041*[#   7]+0.041*[#   6]
          +0.041*[#   8]+0.041*[#  10]+0.041*[#  16]+0.041*[#  11]+0.041*[#  12]
          +0.041*[#  14]+0.041*[#  15]+0.041*[#  18]+0.041*[#  19]+0.041*[#  20]
          +0.041*[#  30]+0.041*[#  22]+0.041*[#  23]+0.041*[#  24]+0.041*[#  26]
          +0.041*[#  27]+0.041*[#  28]+0.041*[#  31]+0.041*[#  32]
    |psi|^2 = 0.994
==== e(  14) =     5.47279 eV ==== 
     psi = 0.033*[#   2]+0.033*[#   3]+0.033*[#   4]+0.033*[#   6]+0.033*[#   7]
          +0.033*[#   8]+0.033*[#  10]+0.033*[#  11]+0.033*[#  12]+0.033*[#  14]
          +0.033*[#  15]+0.033*[#  16]+0.033*[#  18]+0.033*[#  19]+0.033*[#  20]
          +0.033*[#  22]+0.033*[#  23]+0.033*[#  24]+0.033*[#  26]+0.033*[#  27]
          +0.033*[#  28]+0.033*[#  30]+0.033*[#  31]+0.033*[#  32]+0.022*[#   1]
          +0.022*[#   5]+0.022*[#   9]+0.022*[#  13]+0.022*[#  17]+0.022*[#  21]
          +0.022*[#  25]+0.022*[#  29]
    |psi|^2 = 0.969
==== e(  15) =     5.73469 eV ==== 
     psi = 0.040*[#   2]+0.040*[#   3]+0.040*[#   4]+0.040*[#   6]+0.040*[#   7]
          +0.040*[#   8]+0.040*[#  14]+0.040*[#  15]+0.040*[#  16]+0.040*[#  30]
          +0.040*[#  31]+0.040*[#  32]+0.019*[#  10]+0.019*[#  11]+0.019*[#  12]
          +0.019*[#  18]+0.019*[#  19]+0.019*[#  20]+0.019*[#  22]+0.019*[#  23]
          +0.019*[#  24]+0.019*[#  26]+0.019*[#  27]+0.019*[#  28]
    |psi|^2 = 0.710
==== e(  16) =     5.73469 eV ==== 
     psi = 0.054*[#  10]+0.054*[#  11]+0.054*[#  12]+0.054*[#  18]+0.054*[#  19]
          +0.054*[#  20]+0.054*[#  22]+0.054*[#  23]+0.054*[#  24]+0.054*[#  26]
          +0.054*[#  27]+0.054*[#  28]+0.034*[#   2]+0.034*[#   3]+0.034*[#   4]
          +0.034*[#   6]+0.034*[#   7]+0.034*[#   8]+0.034*[#  14]+0.034*[#  15]
          +0.034*[#  16]+0.034*[#  30]+0.034*[#  31]+0.034*[#  32]
    |psi|^2 = 1.056

 k =   0.3333333333  0.0000000000  0.0000000000
==== e(   1) =    -5.34348 eV ==== 
     psi = 0.103*[#   5]+0.103*[#   9]+0.103*[#  13]+0.103*[#  17]+0.103*[#  21]
          +0.103*[#  25]+0.103*[#  29]+0.103*[#   1]+0.007*[#   2]+0.007*[#   3]
          +0.007*[#   4]+0.007*[#   6]+0.007*[#   7]+0.007*[#   8]+0.007*[#  10]
          +0.007*[#  11]+0.007*[#  12]+0.007*[#  14]+0.007*[#  15]+0.007*[#  16]
          +0.007*[#  18]+0.007*[#  19]+0.007*[#  20]+0.007*[#  22]+0.007*[#  23]
          +0.007*[#  24]+0.007*[#  26]+0.007*[#  27]+0.007*[#  28]+0.007*[#  30]
          +0.007*[#  31]+0.007*[#  32]
    |psi|^2 = 0.993
==== e(   2) =    -3.91783 eV ==== 
     psi = 0.082*[#   1]+0.082*[#   5]+0.082*[#   9]+0.082*[#  13]+0.082*[#  17]
          +0.082*[#  21]+0.082*[#  25]+0.082*[#  29]+0.021*[#   2]+0.021*[#   3]
          +0.021*[#   4]+0.021*[#   6]+0.021*[#   7]+0.021*[#   8]+0.021*[#  10]
          +0.021*[#  11]+0.021*[#  12]+0.021*[#  14]+0.021*[#  15]+0.021*[#  16]
          +0.021*[#  18]+0.021*[#  19]+0.021*[#  20]+0.021*[#  22]+0.021*[#  23]
          +0.021*[#  24]+0.021*[#  26]+0.021*[#  27]+0.021*[#  28]+0.021*[#  30]
          +0.021*[#  31]+0.021*[#  32]
    |psi|^2 = 1.163
==== e(   3) =    -1.54469 eV ==== 
     psi = 0.152*[#   9]+0.152*[#  17]+0.152*[#  21]+0.152*[#  25]+0.022*[#   7]
          +0.022*[#  16]+0.022*[#  30]+0.018*[#   6]+0.018*[#   8]+0.018*[#  14]
          +0.018*[#  15]+0.018*[#  31]+0.018*[#  32]+0.013*[#   2]+0.013*[#   3]
          +0.013*[#   4]
    |psi|^2 = 0.819
==== e(   4) =    -1.54469 eV ==== 
     psi = 0.152*[#   9]+0.152*[#  17]+0.152*[#  21]+0.152*[#  25]+0.033*[#   2]
          +0.033*[#   3]+0.033*[#   4]+0.029*[#   6]+0.029*[#   8]+0.029*[#  14]
          +0.029*[#  15]+0.029*[#  31]+0.029*[#  32]+0.024*[#   7]+0.024*[#  16]
          +0.024*[#  30]+0.014*[#  10]+0.014*[#  11]+0.014*[#  12]+0.014*[#  18]
          +0.014*[#  19]+0.014*[#  20]+0.014*[#  22]+0.014*[#  23]+0.014*[#  24]
          +0.014*[#  26]+0.014*[#  27]+0.014*[#  28]
    |psi|^2 = 1.119
==== e(   5) =    -1.54458 eV ==== 
     psi = 0.202*[#   5]+0.202*[#  13]+0.202*[#  29]+0.032*[#  10]+0.032*[#  11]
          +0.032*[#  12]+0.032*[#  18]+0.032*[#  19]+0.032*[#  20]+0.032*[#  22]
          +0.032*[#  23]+0.032*[#  24]+0.032*[#  26]+0.032*[#  27]+0.032*[#  28]
          
    |psi|^2 = 0.994
==== e(   6) =    -1.54312 eV ==== 
     psi = 0.304*[#   1]+0.101*[#   5]+0.101*[#  13]+0.101*[#  29]+0.016*[#  10]
          +0.016*[#  11]+0.016*[#  12]+0.016*[#  18]+0.016*[#  19]+0.016*[#  20]
          +0.016*[#  22]+0.016*[#  23]+0.016*[#  24]+0.016*[#  26]+0.016*[#  27]
          +0.016*[#  28]
    |psi|^2 = 0.802
==== e(   7) =     1.14721 eV ==== 
     psi = 0.063*[#   1]+0.063*[#   5]+0.063*[#   9]+0.063*[#  13]+0.063*[#  17]
          +0.063*[#  21]+0.063*[#  25]+0.063*[#  29]+0.036*[#  10]+0.036*[#  11]
          +0.036*[#  12]+0.036*[#  18]+0.036*[#  19]+0.036*[#  20]+0.036*[#  22]
          +0.036*[#  23]+0.036*[#  24]+0.036*[#  26]+0.036*[#  27]+0.036*[#  28]
          +0.020*[#   2]+0.020*[#   3]+0.020*[#   4]+0.020*[#   6]+0.020*[#   7]
          +0.020*[#   8]+0.020*[#  14]+0.020*[#  15]+0.020*[#  16]+0.020*[#  30]
          +0.020*[#  31]+0.020*[#  32]
    |psi|^2 = 1.184
==== e(   8) =     2.47079 eV ==== 
     psi = 0.066*[#   6]+0.066*[#   8]+0.066*[#  14]+0.066*[#  15]+0.066*[#  31]
          +0.066*[#  32]+0.024*[#  10]+0.024*[#  11]+0.024*[#  12]+0.024*[#  18]
          +0.024*[#  19]+0.024*[#  20]+0.024*[#  22]+0.024*[#  23]+0.024*[#  24]
          +0.024*[#  26]+0.024*[#  27]+0.024*[#  28]+0.003*[#   5]+0.003*[#  13]
          +0.003*[#  29]
    |psi|^2 = 0.700
==== e(   9) =     2.47096 eV ==== 
     psi = 0.049*[#   2]+0.049*[#   3]+0.049*[#   4]+0.049*[#   6]+0.049*[#   7]
          +0.049*[#   8]+0.049*[#  14]+0.049*[#  15]+0.049*[#  16]+0.049*[#  30]
          +0.049*[#  31]+0.049*[#  32]+0.033*[#  10]+0.033*[#  11]+0.033*[#  12]
          +0.033*[#  18]+0.033*[#  19]+0.033*[#  20]+0.033*[#  22]+0.033*[#  23]
          +0.033*[#  24]+0.033*[#  26]+0.033*[#  27]+0.033*[#  28]+0.002*[#   9]
          +0.002*[#  17]+0.002*[#  21]+0.002*[#  25]
    |psi|^2 = 0.994
==== e(  10) =     2.47096 eV ==== 
     psi = 0.066*[#  10]+0.066*[#  11]+0.066*[#  12]+0.066*[#  18]+0.066*[#  19]
          +0.066*[#  20]+0.066*[#  22]+0.066*[#  23]+0.066*[#  24]+0.066*[#  26]
          +0.066*[#  27]+0.066*[#  28]+0.048*[#   7]+0.048*[#  16]+0.048*[#  30]
          +0.026*[#   6]+0.026*[#   8]+0.026*[#  14]+0.026*[#  15]+0.026*[#  31]
          +0.026*[#  32]+0.003*[#   2]+0.003*[#   3]+0.003*[#   4]+0.002*[#   9]
          +0.002*[#  17]+0.002*[#  21]+0.002*[#  25]
    |psi|^2 = 1.110
==== e(  11) =     2.47113 eV ==== 
     psi = 0.112*[#   2]+0.112*[#   3]+0.112*[#   4]+0.067*[#   7]+0.067*[#  16]
          +0.067*[#  30]+0.024*[#  10]+0.024*[#  11]+0.024*[#  12]+0.024*[#  18]
          +0.024*[#  19]+0.024*[#  20]+0.024*[#  22]+0.024*[#  23]+0.024*[#  24]
          +0.024*[#  26]+0.024*[#  27]+0.024*[#  28]+0.023*[#   6]+0.023*[#   8]
          +0.023*[#  14]+0.023*[#  15]+0.023*[#  31]+0.023*[#  32]+0.004*[#   1]
          +0.002*[#   5]+0.002*[#  13]+0.002*[#  29]
    |psi|^2 = 0.980
==== e(  12) =     3.72629 eV ==== 
     psi = 0.049*[#  10]+0.049*[#  11]+0.049*[#  12]+0.049*[#  18]+0.049*[#  19]
          +0.049*[#  20]+0.049*[#  22]+0.049*[#  23]+0.049*[#  24]+0.049*[#  26]
          +0.049*[#  27]+0.049*[#  28]+0.026*[#   2]+0.026*[#   3]+0.026*[#   4]
          +0.026*[#   6]+0.026*[#   7]+0.026*[#   8]+0.026*[#  14]+0.026*[#  15]
          +0.026*[#  16]+0.026*[#  30]+0.026*[#  31]+0.026*[#  32]
    |psi|^2 = 0.889
==== e(  13) =     3.72629 eV ==== 
     psi = 0.041*[#   2]+0.041*[#   3]+0.041*[#   4]+0.041*[#   6]+0.041*[#   7]
          +0.041*[#   8]+0.041*[#  10]+0.041*[#  11]+0.041*[#  12]+0.041*[#  14]
          +0.041*[#  15]+0.041*[#  16]+0.041*[#  18]+0.041*[#  19]+0.041*[#  20]
          +0.041*[#  22]+0.041*[#  23]+0.041*[#  24]+0.041*[#  26]+0.041*[#  27]
          +0.041*[#  28]+0.041*[#  30]+0.041*[#  31]+0.041*[#  32]
    |psi|^2 = 0.993
==== e(  14) =     4.12437 eV ==== 
     psi = 0.043*[#   1]+0.043*[#   5]+0.043*[#   9]+0.043*[#  13]+0.043*[#  17]
          +0.043*[#  21]+0.043*[#  25]+0.043*[#  29]+0.026*[#   2]+0.026*[#   3]
          +0.026*[#   4]+0.026*[#   6]+0.026*[#   7]+0.026*[#   8]+0.026*[#  10]
          +0.026*[#  11]+0.026*[#  12]+0.026*[#  14]+0.026*[#  15]+0.026*[#  16]
          +0.026*[#  18]+0.026*[#  19]+0.026*[#  20]+0.026*[#  22]+0.026*[#  23]
          +0.026*[#  24]+0.026*[#  26]+0.026*[#  27]+0.026*[#  28]+0.026*[#  30]
          +0.026*[#  31]+0.026*[#  32]
    |psi|^2 = 0.979
==== e(  15) =     4.96156 eV ==== 
     psi = 0.031*[#   2]+0.031*[#   3]+0.031*[#   4]+0.031*[#   6]+0.031*[#   7]
          +0.031*[#   8]+0.031*[#  14]+0.031*[#  15]+0.031*[#  16]+0.031*[#  30]
          +0.031*[#  31]+0.031*[#  32]+0.023*[#  10]+0.023*[#  11]+0.023*[#  12]
          +0.023*[#  18]+0.023*[#  19]+0.023*[#  20]+0.023*[#  22]+0.023*[#  23]
          +0.023*[#  24]+0.023*[#  26]+0.023*[#  27]+0.023*[#  28]
    |psi|^2 = 0.653
==== e(  16) =     4.96156 eV ==== 
     psi = 0.044*[#  10]+0.044*[#  11]+0.044*[#  12]+0.044*[#  18]+0.044*[#  19]
          +0.044*[#  20]+0.044*[#  22]+0.044*[#  23]+0.044*[#  24]+0.044*[#  26]
          +0.044*[#  27]+0.044*[#  28]+0.036*[#   2]+0.036*[#   3]+0.036*[#   4]
          +0.036*[#   6]+0.036*[#   7]+0.036*[#   8]+0.036*[#  14]+0.036*[#  15]
          +0.036*[#  16]+0.036*[#  30]+0.036*[#  31]+0.036*[#  32]
    |psi|^2 = 0.965

 k =   0.5000000000  0.0000000000  0.0000000000
==== e(   1) =    -4.74394 eV ==== 
     psi = 0.121*[#   5]+0.121*[#  13]+0.121*[#  29]+0.091*[#   9]+0.091*[#  17]
          +0.091*[#  21]+0.091*[#  25]+0.022*[#   2]+0.022*[#   3]+0.022*[#   4]
          +0.022*[#   7]+0.022*[#  16]+0.022*[#  30]+0.011*[#  10]+0.011*[#  11]
          +0.011*[#  12]+0.011*[#  18]+0.011*[#  19]+0.011*[#  20]+0.011*[#  22]
          +0.011*[#  23]+0.011*[#  24]+0.011*[#  26]+0.011*[#  27]+0.011*[#  28]
          
    |psi|^2 = 0.993
==== e(   2) =    -4.74289 eV ==== 
     psi = 0.181*[#   1]+0.091*[#   9]+0.091*[#  17]+0.091*[#  21]+0.091*[#  25]
          +0.060*[#   5]+0.060*[#  13]+0.060*[#  29]+0.034*[#   6]+0.034*[#   8]
          +0.034*[#  14]+0.034*[#  15]+0.034*[#  31]+0.034*[#  32]+0.022*[#   2]
          +0.022*[#   3]+0.022*[#   4]+0.022*[#  10]+0.022*[#  11]+0.022*[#  12]
          +0.022*[#  18]+0.022*[#  19]+0.022*[#  20]+0.022*[#  22]+0.022*[#  23]
          +0.022*[#  24]+0.022*[#  26]+0.022*[#  27]+0.022*[#  28]
    |psi|^2 = 1.261
==== e(   3) =    -1.49898 eV ==== 
     psi = 0.155*[#   9]+0.155*[#  17]+0.155*[#  21]+0.155*[#  25]+0.029*[#   7]
          +0.029*[#  16]+0.029*[#  30]+0.016*[#   6]+0.016*[#   8]+0.016*[#  14]
          +0.016*[#  15]+0.016*[#  31]+0.016*[#  32]+0.002*[#   2]+0.002*[#   3]
          +0.002*[#   4]
    |psi|^2 = 0.807
==== e(   4) =    -1.49898 eV ==== 
     psi = 0.155*[#   9]+0.155*[#  17]+0.155*[#  21]+0.155*[#  25]+0.029*[#   2]
          +0.029*[#   3]+0.029*[#   4]+0.027*[#   6]+0.027*[#   8]+0.027*[#  14]
          +0.027*[#  15]+0.027*[#  31]+0.027*[#  32]+0.024*[#   7]+0.024*[#  16]
          +0.024*[#  30]+0.011*[#  10]+0.011*[#  11]+0.011*[#  12]+0.011*[#  18]
          +0.011*[#  19]+0.011*[#  20]+0.011*[#  22]+0.011*[#  23]+0.011*[#  24]
          +0.011*[#  26]+0.011*[#  27]+0.011*[#  28]
    |psi|^2 = 1.075
==== e(   5) =    -1.49886 eV ==== 
     psi = 0.206*[#   5]+0.206*[#  13]+0.206*[#  29]+0.031*[#  10]+0.031*[#  11]
          +0.031*[#  12]+0.031*[#  18]+0.031*[#  19]+0.031*[#  20]+0.031*[#  22]
          +0.031*[#  23]+0.031*[#  24]+0.031*[#  26]+0.031*[#  27]+0.031*[#  28]
          
    |psi|^2 = 0.995
==== e(   6) =    -1.49736 eV ==== 
     psi = 0.310*[#   1]+0.103*[#   5]+0.103*[#  13]+0.103*[#  29]+0.016*[#  10]
          +0.016*[#  11]+0.016*[#  12]+0.016*[#  18]+0.016*[#  19]+0.016*[#  20]
          +0.016*[#  22]+0.016*[#  23]+0.016*[#  24]+0.016*[#  26]+0.016*[#  27]
          +0.016*[#  28]
    |psi|^2 = 0.807
==== e(   7) =     2.25746 eV ==== 
     psi = 0.064*[#   6]+0.064*[#   8]+0.064*[#  14]+0.064*[#  15]+0.064*[#  31]
          +0.064*[#  32]+0.041*[#  10]+0.041*[#  11]+0.041*[#  12]+0.041*[#  18]
          +0.041*[#  19]+0.041*[#  20]+0.041*[#  22]+0.041*[#  23]+0.041*[#  24]
          +0.041*[#  26]+0.041*[#  27]+0.041*[#  28]
    |psi|^2 = 0.876
==== e(   8) =     2.25759 eV ==== 
     psi = 0.039*[#   7]+0.039*[#  16]+0.039*[#  30]+0.032*[#  10]+0.032*[#  11]
          +0.032*[#  12]+0.032*[#  18]+0.032*[#  19]+0.032*[#  20]+0.032*[#  22]
          +0.032*[#  23]+0.032*[#  24]+0.032*[#  26]+0.032*[#  27]+0.032*[#  28]
          +0.025*[#   6]+0.025*[#   8]+0.025*[#  14]+0.025*[#  15]+0.025*[#  31]
          +0.025*[#  32]+0.012*[#   2]+0.012*[#   3]+0.012*[#   4]
    |psi|^2 = 0.688
==== e(   9) =     2.25759 eV ==== 
     psi = 0.051*[#   2]+0.051*[#   3]+0.051*[#   4]+0.051*[#   6]+0.051*[#   7]
          +0.051*[#   8]+0.051*[#  14]+0.051*[#  15]+0.051*[#  16]+0.051*[#  30]
          +0.051*[#  31]+0.051*[#  32]+0.032*[#  10]+0.032*[#  11]+0.032*[#  12]
          +0.032*[#  18]+0.032*[#  19]+0.032*[#  20]+0.032*[#  22]+0.032*[#  23]
          +0.032*[#  24]+0.032*[#  26]+0.032*[#  27]+0.032*[#  28]
    |psi|^2 = 0.994
==== e(  10) =     2.25771 eV ==== 
     psi = 0.064*[#   7]+0.064*[#  16]+0.064*[#  30]+0.064*[#   2]+0.064*[#   3]
          +0.064*[#   4]+0.057*[#  10]+0.057*[#  11]+0.057*[#  12]+0.057*[#  18]
          +0.057*[#  19]+0.057*[#  20]+0.057*[#  22]+0.057*[#  23]+0.057*[#  24]
          +0.057*[#  26]+0.057*[#  27]+0.057*[#  28]
    |psi|^2 = 1.072
==== e(  11) =     2.64326 eV ==== 
     psi = 0.110*[#   1]+0.055*[#   9]+0.055*[#  17]+0.055*[#  21]+0.055*[#  25]
          +0.048*[#  10]+0.048*[#  11]+0.048*[#  12]+0.048*[#  18]+0.048*[#  19]
          +0.048*[#  20]+0.048*[#  22]+0.048*[#  23]+0.048*[#  24]+0.048*[#  26]
          +0.048*[#  27]+0.048*[#  28]+0.045*[#   6]+0.045*[#   8]+0.045*[#  14]
          +0.045*[#  15]+0.045*[#  31]+0.045*[#  32]+0.037*[#   5]+0.037*[#  13]
          +0.037*[#  29]
    |psi|^2 = 1.291
==== e(  12) =     2.64358 eV ==== 
     psi = 0.109*[#   2]+0.109*[#   3]+0.109*[#   4]+0.074*[#   5]+0.074*[#  13]
          +0.074*[#  29]+0.055*[#   9]+0.055*[#  17]+0.055*[#  21]+0.055*[#  25]
          +0.045*[#   7]+0.045*[#  16]+0.045*[#  30]+0.032*[#   6]+0.032*[#   8]
          +0.032*[#  14]+0.032*[#  15]+0.032*[#  31]+0.032*[#  32]+0.023*[#  10]
          +0.023*[#  11]+0.023*[#  12]+0.023*[#  18]+0.023*[#  19]+0.023*[#  20]
          +0.023*[#  22]+0.023*[#  23]+0.023*[#  24]+0.023*[#  26]+0.023*[#  27]
          +0.023*[#  28]
    |psi|^2 = 1.369
==== e(  13) =     4.25697 eV ==== 
     psi = 0.082*[#   7]+0.082*[#  16]+0.082*[#  30]+0.041*[#   6]+0.041*[#   8]
          +0.041*[#  10]+0.041*[#  11]+0.041*[#  12]+0.041*[#  14]+0.041*[#  15]
          +0.041*[#  18]+0.041*[#  19]+0.041*[#  20]+0.041*[#  22]+0.041*[#  23]
          +0.041*[#  24]+0.041*[#  26]+0.041*[#  27]+0.041*[#  28]+0.041*[#  31]
          +0.041*[#  32]
    |psi|^2 = 0.990
==== e(  14) =     4.25697 eV ==== 
     psi = 0.053*[#   7]+0.053*[#  16]+0.053*[#  30]+0.026*[#   6]+0.026*[#   8]
          +0.026*[#  14]+0.026*[#  15]+0.026*[#  31]+0.026*[#  32]+0.016*[#  10]
          +0.016*[#  11]+0.016*[#  12]+0.016*[#  18]+0.016*[#  19]+0.016*[#  20]
          +0.016*[#  22]+0.016*[#  23]+0.016*[#  24]+0.016*[#  26]+0.016*[#  27]
          +0.016*[#  28]
    |psi|^2 = 0.505
==== e(  15) =     4.25808 eV ==== 
     psi = 0.062*[#  10]+0.062*[#  11]+0.062*[#  12]+0.062*[#  18]+0.062*[#  19]
          +0.062*[#  20]+0.062*[#  22]+0.062*[#  23]+0.062*[#  24]+0.062*[#  26]
          +0.062*[#  27]+0.062*[#  28]+0.030*[#   7]+0.030*[#  16]+0.030*[#  30]
          +0.017*[#   6]+0.017*[#   8]+0.017*[#  14]+0.017*[#  15]+0.017*[#  31]
          +0.017*[#  32]+0.004*[#   2]+0.004*[#   3]+0.004*[#   4]
    |psi|^2 = 0.949
==== e(  16) =     4.25808 eV ==== 
     psi = 0.079*[#   2]+0.079*[#   3]+0.079*[#   4]+0.039*[#   6]+0.039*[#   8]
          +0.039*[#  14]+0.039*[#  15]+0.039*[#  31]+0.039*[#  32]+0.005*[#  10]
          +0.005*[#  11]+0.005*[#  12]+0.005*[#  18]+0.005*[#  19]+0.005*[#  20]
          +0.005*[#  22]+0.005*[#  23]+0.005*[#  24]+0.005*[#  26]+0.005*[#  27]
          +0.005*[#  28]
    |psi|^2 = 0.526

 k =   0.6666666667  0.0000000000  0.0000000000
==== e(   1) =    -5.34348 eV ==== 
     psi = 0.103*[#   5]+0.103*[#   9]+0.103*[#  13]+0.103*[#  17]+0.103*[#  21]
          +0.103*[#  25]+0.103*[#  29]+0.103*[#   1]+0.007*[#   2]+0.007*[#   3]
          +0.007*[#   4]+0.007*[#   6]+0.007*[#   7]+0.007*[#   8]+0.007*[#  10]
          +0.007*[#  11]+0.007*[#  12]+0.007*[#  14]+0.007*[#  15]+0.007*[#  16]
          +0.007*[#  18]+0.007*[#  19]+0.007*[#  20]+0.007*[#  22]+0.007*[#  23]
          +0.007*[#  24]+0.007*[#  26]+0.007*[#  27]+0.007*[#  28]+0.007*[#  30]
          +0.007*[#  31]+0.007*[#  32]
    |psi|^2 = 0.993
==== e(   2) =    -3.91783 eV ==== 
     psi = 0.082*[#   1]+0.082*[#   5]+0.082*[#   9]+0.082*[#  13]+0.082*[#  17]
          +0.082*[#  21]+0.082*[#  25]+0.082*[#  29]+0.021*[#   2]+0.021*[#   3]
          +0.021*[#   4]+0.021*[#   6]+0.021*[#   7]+0.021*[#   8]+0.021*[#  10]
          +0.021*[#  11]+0.021*[#  12]+0.021*[#  14]+0.021*[#  15]+0.021*[#  16]
          +0.021*[#  18]+0.021*[#  19]+0.021*[#  20]+0.021*[#  22]+0.021*[#  23]
          +0.021*[#  24]+0.021*[#  26]+0.021*[#  27]+0.021*[#  28]+0.021*[#  30]
          +0.021*[#  31]+0.021*[#  32]
    |psi|^2 = 1.163
==== e(   3) =    -1.54469 eV ==== 
     psi = 0.152*[#   9]+0.152*[#  17]+0.152*[#  21]+0.152*[#  25]+0.032*[#   7]
          +0.032*[#  16]+0.032*[#  30]+0.023*[#   6]+0.023*[#   8]+0.023*[#  14]
          +0.023*[#  15]+0.023*[#  31]+0.023*[#  32]+0.013*[#   2]+0.013*[#   3]
          +0.013*[#   4]
    |psi|^2 = 0.881
==== e(   4) =    -1.54469 eV ==== 
     psi = 0.152*[#   9]+0.152*[#  17]+0.152*[#  21]+0.152*[#  25]+0.033*[#   2]
          +0.033*[#   3]+0.033*[#   4]+0.023*[#   6]+0.023*[#   8]+0.023*[#  14]
          +0.023*[#  15]+0.023*[#  31]+0.023*[#  32]+0.014*[#   7]+0.014*[#  16]
          +0.014*[#  30]+0.014*[#  10]+0.014*[#  11]+0.014*[#  12]+0.014*[#  18]
          +0.014*[#  19]+0.014*[#  20]+0.014*[#  22]+0.014*[#  23]+0.014*[#  24]
          +0.014*[#  26]+0.014*[#  27]+0.014*[#  28]
    |psi|^2 = 1.057
==== e(   5) =    -1.54458 eV ==== 
     psi = 0.202*[#   5]+0.202*[#  13]+0.202*[#  29]+0.032*[#  10]+0.032*[#  11]
          +0.032*[#  12]+0.032*[#  18]+0.032*[#  19]+0.032*[#  20]+0.032*[#  22]
          +0.032*[#  23]+0.032*[#  24]+0.032*[#  26]+0.032*[#  27]+0.032*[#  28]
          
    |psi|^2 = 0.994
==== e(   6) =    -1.54312 eV ==== 
     psi = 0.304*[#   1]+0.101*[#   5]+0.101*[#  13]+0.101*[#  29]+0.016*[#  10]
          +0.016*[#  11]+0.016*[#  12]+0.016*[#  18]+0.016*[#  19]+0.016*[#  20]
          +0.016*[#  22]+0.016*[#  23]+0.016*[#  24]+0.016*[#  26]+0.016*[#  27]
          +0.016*[#  28]
    |psi|^2 = 0.802
==== e(   7) =     1.14721 eV ==== 
     psi = 0.063*[#   1]+0.063*[#   5]+0.063*[#   9]+0.063*[#  13]+0.063*[#  17]
          +0.063*[#  21]+0.063*[#  25]+0.063*[#  29]+0.036*[#  10]+0.036*[#  11]
          +0.036*[#  12]+0.036*[#  18]+0.036*[#  19]+0.036*[#  20]+0.036*[#  22]
          +0.036*[#  23]+0.036*[#  24]+0.036*[#  26]+0.036*[#  27]+0.036*[#  28]
          +0.020*[#   2]+0.020*[#   3]+0.020*[#   4]+0.020*[#   6]+0.020*[#   7]
          +0.020*[#   8]+0.020*[#  14]+0.020*[#  15]+0.020*[#  16]+0.020*[#  30]
          +0.020*[#  31]+0.020*[#  32]
    |psi|^2 = 1.184
==== e(   8) =     2.47079 eV ==== 
     psi = 0.066*[#   6]+0.066*[#   8]+0.066*[#  14]+0.066*[#  15]+0.066*[#  31]
          +0.066*[#  32]+0.024*[#  10]+0.024*[#  11]+0.024*[#  12]+0.024*[#  18]
          +0.024*[#  19]+0.024*[#  20]+0.024*[#  22]+0.024*[#  23]+0.024*[#  24]
          +0.024*[#  26]+0.024*[#  27]+0.024*[#  28]+0.003*[#   5]+0.003*[#  13]
          +0.003*[#  29]
    |psi|^2 = 0.700
==== e(   9) =     2.47096 eV ==== 
     psi = 0.049*[#   2]+0.049*[#   3]+0.049*[#   4]+0.049*[#   6]+0.049*[#   7]
          +0.049*[#   8]+0.049*[#  14]+0.049*[#  15]+0.049*[#  16]+0.049*[#  30]
          +0.049*[#  31]+0.049*[#  32]+0.033*[#  10]+0.033*[#  11]+0.033*[#  12]
          +0.033*[#  18]+0.033*[#  19]+0.033*[#  20]+0.033*[#  22]+0.033*[#  23]
          +0.033*[#  24]+0.033*[#  26]+0.033*[#  27]+0.033*[#  28]+0.002*[#   9]
          +0.002*[#  17]+0.002*[#  21]+0.002*[#  25]
    |psi|^2 = 0.994
==== e(  10) =     2.47096 eV ==== 
     psi = 0.066*[#  10]+0.066*[#  11]+0.066*[#  12]+0.066*[#  18]+0.066*[#  19]
          +0.066*[#  20]+0.066*[#  22]+0.066*[#  23]+0.066*[#  24]+0.066*[#  26]
          +0.066*[#  27]+0.066*[#  28]+0.048*[#   7]+0.048*[#  16]+0.048*[#  30]
          +0.027*[#   6]+0.027*[#   8]+0.027*[#  14]+0.027*[#  15]+0.027*[#  31]
          +0.027*[#  32]+0.006*[#   2]+0.006*[#   3]+0.006*[#   4]+0.002*[#   9]
          +0.002*[#  17]+0.002*[#  21]+0.002*[#  25]
    |psi|^2 = 1.131
==== e(  11) =     2.47113 eV ==== 
     psi = 0.109*[#   2]+0.109*[#   3]+0.109*[#   4]+0.067*[#   7]+0.067*[#  16]
          +0.067*[#  30]+0.024*[#  10]+0.024*[#  11]+0.024*[#  12]+0.024*[#  18]
          +0.024*[#  19]+0.024*[#  20]+0.024*[#  22]+0.024*[#  23]+0.024*[#  24]
          +0.024*[#  26]+0.024*[#  27]+0.024*[#  28]+0.022*[#   6]+0.022*[#   8]
          +0.022*[#  14]+0.022*[#  15]+0.022*[#  31]+0.022*[#  32]+0.004*[#   1]
          +0.002*[#   5]+0.002*[#  13]+0.002*[#  29]
    |psi|^2 = 0.960
==== e(  12) =     3.72629 eV ==== 
     psi = 0.069*[#  10]+0.069*[#  11]+0.069*[#  12]+0.069*[#  18]+0.069*[#  19]
          +0.069*[#  20]+0.069*[#  22]+0.069*[#  23]+0.069*[#  24]+0.069*[#  26]
          +0.069*[#  27]+0.069*[#  28]+0.002*[#   2]+0.002*[#   3]+0.002*[#   4]
          +0.002*[#   6]+0.002*[#   7]+0.002*[#   8]+0.002*[#  14]+0.002*[#  15]
          +0.002*[#  16]+0.002*[#  30]+0.002*[#  31]+0.002*[#  32]
    |psi|^2 = 0.859
==== e(  13) =     3.72629 eV ==== 
     psi = 0.041*[#   2]+0.041*[#   3]+0.041*[#   4]+0.041*[#   6]+0.041*[#   7]
          +0.041*[#   8]+0.041*[#  10]+0.041*[#  11]+0.041*[#  12]+0.041*[#  14]
          +0.041*[#  15]+0.041*[#  16]+0.041*[#  18]+0.041*[#  19]+0.041*[#  20]
          +0.041*[#  22]+0.041*[#  23]+0.041*[#  24]+0.041*[#  26]+0.041*[#  27]
          +0.041*[#  28]+0.041*[#  30]+0.041*[#  31]+0.041*[#  32]
    |psi|^2 = 0.993
==== e(  14) =     4.12437 eV ==== 
     psi = 0.043*[#   1]+0.043*[#   5]+0.043*[#   9]+0.043*[#  13]+0.043*[#  17]
          +0.043*[#  21]+0.043*[#  25]+0.043*[#  29]+0.026*[#   2]+0.026*[#   3]
          +0.026*[#   4]+0.026*[#   6]+0.026*[#   7]+0.026*[#   8]+0.026*[#  10]
          +0.026*[#  11]+0.026*[#  12]+0.026*[#  14]+0.026*[#  15]+0.026*[#  16]
          +0.026*[#  18]+0.026*[#  19]+0.026*[#  20]+0.026*[#  22]+0.026*[#  23]
          +0.026*[#  24]+0.026*[#  26]+0.026*[#  27]+0.026*[#  28]+0.026*[#  30]
          +0.026*[#  31]+0.026*[#  32]
    |psi|^2 = 0.979
==== e(  15) =     4.96156 eV ==== 
     psi = 0.038*[#  10]+0.038*[#  11]+0.038*[#  12]+0.038*[#  18]+0.038*[#  19]
          +0.038*[#  20]+0.038*[#  22]+0.038*[#  23]+0.038*[#  24]+0.038*[#  26]
          +0.038*[#  27]+0.038*[#  28]+0.006*[#   2]+0.006*[#   3]+0.006*[#   4]
          +0.006*[#   6]+0.006*[#   7]+0.006*[#   8]+0.006*[#  14]+0.006*[#  15]
          +0.006*[#  16]+0.006*[#  30]+0.006*[#  31]+0.006*[#  32]
    |psi|^2 = 0.523
==== e(  16) =     4.96156 eV ==== 
     psi = 0.062*[#   2]+0.062*[#   3]+0.062*[#   4]+0.061*[#   6]+0.061*[#   7]
          +0.061*[#   8]+0.061*[#  14]+0.061*[#  15]+0.061*[#  16]+0.061*[#  30]
          +0.061*[#  31]+0.061*[#  32]+0.030*[#  10]+0.030*[#  11]+0.030*[#  12]
          +0.030*[#  18]+0.030*[#  19]+0.030*[#  20]+0.030*[#  22]+0.030*[#  23]
          +0.030*[#  24]+0.030*[#  26]+0.030*[#  27]+0.030*[#  28]
    |psi|^2 = 1.095

 k =   0.8333333333  0.0000000000  0.0000000000
==== e(   1) =    -5.70745 eV ==== 
     psi = 0.117*[#   5]+0.117*[#   9]+0.117*[#  13]+0.117*[#  17]+0.117*[#  21]
          +0.117*[#  25]+0.117*[#  29]+0.117*[#   1]+0.002*[#   2]+0.002*[#   3]
          +0.002*[#   4]+0.002*[#   6]+0.002*[#   7]+0.002*[#   8]+0.002*[#  10]
          +0.002*[#  11]+0.002*[#  12]+0.002*[#  14]+0.002*[#  15]+0.002*[#  16]
          +0.002*[#  18]+0.002*[#  19]+0.002*[#  20]+0.002*[#  22]+0.002*[#  23]
          +0.002*[#  24]+0.002*[#  26]+0.002*[#  27]+0.002*[#  28]+0.002*[#  30]
          +0.002*[#  31]+0.002*[#  32]
    |psi|^2 = 0.993
==== e(   2) =    -2.88416 eV ==== 
     psi = 0.077*[#   5]+0.077*[#   9]+0.077*[#  13]+0.077*[#  17]+0.077*[#  21]
          +0.077*[#  25]+0.077*[#  29]+0.076*[#   1]+0.018*[#   2]+0.018*[#   3]
          +0.018*[#   4]+0.018*[#   6]+0.018*[#   7]+0.018*[#   8]+0.018*[#  10]
          +0.018*[#  11]+0.018*[#  12]+0.018*[#  14]+0.018*[#  15]+0.018*[#  16]
          +0.018*[#  18]+0.018*[#  19]+0.018*[#  20]+0.018*[#  22]+0.018*[#  23]
          +0.018*[#  24]+0.018*[#  26]+0.018*[#  27]+0.018*[#  28]+0.018*[#  30]
          +0.018*[#  31]+0.018*[#  32]
    |psi|^2 = 1.050
==== e(   3) =    -1.62947 eV ==== 
     psi = 0.147*[#   9]+0.147*[#  17]+0.147*[#  21]+0.147*[#  25]+0.030*[#   2]
          +0.030*[#   3]+0.030*[#   4]+0.029*[#   6]+0.029*[#   8]+0.029*[#  14]
          +0.029*[#  15]+0.029*[#  31]+0.029*[#  32]+0.029*[#   7]+0.029*[#  16]
          +0.029*[#  30]
    |psi|^2 = 0.940
==== e(   4) =    -1.62947 eV ==== 
     psi = 0.147*[#   9]+0.147*[#  17]+0.147*[#  21]+0.147*[#  25]+0.021*[#   7]
          +0.021*[#  16]+0.021*[#  30]+0.020*[#   6]+0.020*[#   8]+0.020*[#  14]
          +0.020*[#  15]+0.020*[#  31]+0.020*[#  32]+0.020*[#   2]+0.020*[#   3]
          +0.020*[#   4]+0.016*[#  10]+0.016*[#  11]+0.016*[#  12]+0.016*[#  18]
          +0.016*[#  19]+0.016*[#  20]+0.016*[#  22]+0.016*[#  23]+0.016*[#  24]
          +0.016*[#  26]+0.016*[#  27]+0.016*[#  28]
    |psi|^2 = 1.021
==== e(   5) =    -1.62936 eV ==== 
     psi = 0.196*[#   5]+0.196*[#  13]+0.196*[#  29]+0.034*[#  10]+0.034*[#  11]
          +0.034*[#  12]+0.034*[#  18]+0.034*[#  19]+0.034*[#  20]+0.034*[#  22]
          +0.034*[#  23]+0.034*[#  24]+0.034*[#  26]+0.034*[#  27]+0.034*[#  28]
          
    |psi|^2 = 0.993
==== e(   6) =    -1.62795 eV ==== 
     psi = 0.294*[#   1]+0.098*[#   5]+0.098*[#  13]+0.098*[#  29]+0.017*[#  10]
          +0.017*[#  11]+0.017*[#  12]+0.017*[#  18]+0.017*[#  19]+0.017*[#  20]
          +0.017*[#  22]+0.017*[#  23]+0.017*[#  24]+0.017*[#  26]+0.017*[#  27]
          +0.017*[#  28]
    |psi|^2 = 0.791
==== e(   7) =    -0.30800 eV ==== 
     psi = 0.068*[#   1]+0.068*[#   5]+0.068*[#   9]+0.068*[#  13]+0.068*[#  17]
          +0.068*[#  21]+0.068*[#  25]+0.068*[#  29]+0.036*[#  10]+0.036*[#  11]
          +0.036*[#  12]+0.036*[#  18]+0.036*[#  19]+0.036*[#  20]+0.036*[#  22]
          +0.036*[#  23]+0.036*[#  24]+0.036*[#  26]+0.036*[#  27]+0.036*[#  28]
          +0.019*[#   2]+0.019*[#   3]+0.019*[#   4]+0.019*[#   6]+0.019*[#   7]
          +0.019*[#   8]+0.019*[#  14]+0.019*[#  15]+0.019*[#  16]+0.019*[#  30]
          +0.019*[#  31]+0.019*[#  32]
    |psi|^2 = 1.195
==== e(   8) =     2.97062 eV ==== 
     psi = 0.075*[#   6]+0.075*[#   8]+0.075*[#  14]+0.075*[#  15]+0.075*[#  31]
          +0.075*[#  32]+0.022*[#  10]+0.022*[#  11]+0.022*[#  12]+0.022*[#  18]
          +0.022*[#  19]+0.022*[#  20]+0.022*[#  22]+0.022*[#  23]+0.022*[#  24]
          +0.022*[#  26]+0.022*[#  27]+0.022*[#  28]+0.004*[#   5]+0.004*[#  13]
          +0.004*[#  29]
    |psi|^2 = 0.727
==== e(   9) =     2.97089 eV ==== 
     psi = 0.045*[#   6]+0.045*[#   8]+0.045*[#  14]+0.045*[#  15]+0.045*[#  31]
          +0.045*[#  32]+0.044*[#   2]+0.044*[#   3]+0.044*[#   4]+0.044*[#   7]
          +0.044*[#  16]+0.044*[#  30]+0.037*[#  10]+0.037*[#  11]+0.037*[#  12]
          +0.037*[#  18]+0.037*[#  19]+0.037*[#  20]+0.037*[#  22]+0.037*[#  23]
          +0.037*[#  24]+0.037*[#  26]+0.037*[#  27]+0.037*[#  28]+0.003*[#   9]
          +0.003*[#  17]+0.003*[#  21]+0.003*[#  25]
    |psi|^2 = 0.993
==== e(  10) =     2.97089 eV ==== 
     psi = 0.075*[#  10]+0.075*[#  11]+0.075*[#  12]+0.075*[#  18]+0.075*[#  19]
          +0.075*[#  20]+0.075*[#  22]+0.075*[#  23]+0.075*[#  24]+0.075*[#  26]
          +0.075*[#  27]+0.075*[#  28]+0.011*[#   2]+0.011*[#   3]+0.011*[#   4]
          +0.010*[#   6]+0.010*[#   8]+0.010*[#  14]+0.010*[#  15]+0.010*[#  31]
          +0.010*[#  32]+0.008*[#   7]+0.008*[#  16]+0.008*[#  30]+0.003*[#   9]
          +0.003*[#  17]+0.003*[#  21]+0.003*[#  25]
    |psi|^2 = 1.021
==== e(  11) =     2.97118 eV ==== 
     psi = 0.111*[#   7]+0.111*[#  16]+0.111*[#  30]+0.107*[#   2]+0.107*[#   3]
          +0.107*[#   4]+0.035*[#   6]+0.035*[#   8]+0.035*[#  14]+0.035*[#  15]
          +0.035*[#  31]+0.035*[#  32]+0.022*[#  10]+0.022*[#  11]+0.022*[#  12]
          +0.022*[#  18]+0.022*[#  19]+0.022*[#  20]+0.022*[#  22]+0.022*[#  23]
          +0.022*[#  24]+0.022*[#  26]+0.022*[#  27]+0.022*[#  28]+0.006*[#   1]
          +0.002*[#   5]+0.002*[#  13]+0.002*[#  29]
    |psi|^2 = 1.146
==== e(  12) =     3.39927 eV ==== 
     psi = 0.055*[#  10]+0.055*[#  11]+0.055*[#  12]+0.055*[#  18]+0.055*[#  19]
          +0.055*[#  20]+0.055*[#  22]+0.055*[#  23]+0.055*[#  24]+0.055*[#  26]
          +0.055*[#  27]+0.055*[#  28]+0.023*[#   2]+0.023*[#   3]+0.023*[#   4]
          +0.023*[#   6]+0.023*[#   7]+0.023*[#   8]+0.023*[#  14]+0.023*[#  15]
          +0.023*[#  16]+0.023*[#  30]+0.023*[#  31]+0.023*[#  32]
    |psi|^2 = 0.933
==== e(  13) =     3.39927 eV ==== 
     psi = 0.041*[#   2]+0.041*[#   3]+0.041*[#   4]+0.041*[#   7]+0.041*[#   6]
          +0.041*[#   8]+0.041*[#  10]+0.041*[#  16]+0.041*[#  11]+0.041*[#  12]
          +0.041*[#  14]+0.041*[#  15]+0.041*[#  18]+0.041*[#  19]+0.041*[#  20]
          +0.041*[#  30]+0.041*[#  22]+0.041*[#  23]+0.041*[#  24]+0.041*[#  26]
          +0.041*[#  27]+0.041*[#  28]+0.041*[#  31]+0.041*[#  32]
    |psi|^2 = 0.994
==== e(  14) =     5.47279 eV ==== 
     psi = 0.033*[#   2]+0.033*[#   3]+0.033*[#   4]+0.033*[#   6]+0.033*[#   7]
          +0.033*[#   8]+0.033*[#  10]+0.033*[#  11]+0.033*[#  12]+0.033*[#  14]
          +0.033*[#  15]+0.033*[#  16]+0.033*[#  18]+0.033*[#  19]+0.033*[#  20]
          +0.033*[#  22]+0.033*[#  23]+0.033*[#  24]+0.033*[#  26]+0.033*[#  27]
          +0.033*[#  28]+0.033*[#  30]+0.033*[#  31]+0.033*[#  32]+0.022*[#   1]
          +0.022*[#   5]+0.022*[#   9]+0.022*[#  13]+0.022*[#  17]+0.022*[#  21]
          +0.022*[#  25]+0.022*[#  29]
    |psi|^2 = 0.969
==== e(  15) =     5.73469 eV ==== 
     psi = 0.039*[#   2]+0.039*[#   3]+0.039*[#   4]+0.039*[#   6]+0.039*[#   7]
          +0.039*[#   8]+0.039*[#  14]+0.039*[#  15]+0.039*[#  16]+0.039*[#  30]
          +0.039*[#  31]+0.039*[#  32]+0.025*[#  10]+0.025*[#  11]+0.025*[#  12]
          +0.025*[#  18]+0.025*[#  19]+0.025*[#  20]+0.025*[#  22]+0.025*[#  23]
          +0.025*[#  24]+0.025*[#  26]+0.025*[#  27]+0.025*[#  28]
    |psi|^2 = 0.773
==== e(  16) =     5.73469 eV ==== 
     psi = 0.048*[#  10]+0.048*[#  11]+0.048*[#  12]+0.048*[#  18]+0.048*[#  19]
          +0.048*[#  20]+0.048*[#  22]+0.048*[#  23]+0.048*[#  24]+0.048*[#  26]
          +0.048*[#  27]+0.048*[#  28]+0.034*[#   2]+0.034*[#   3]+0.034*[#   4]
          +0.034*[#   6]+0.034*[#   7]+0.034*[#   8]+0.034*[#  14]+0.034*[#  15]
          +0.034*[#  16]+0.034*[#  30]+0.034*[#  31]+0.034*[#  32]
    |psi|^2 = 0.993

 k =   0.0000000000  0.1666666667  0.0000000000
==== e(   1) =    -5.70745 eV ==== 
     psi = 0.117*[#   5]+0.117*[#   9]+0.117*[#  13]+0.117*[#  17]+0.117*[#  21]
          +0.117*[#  25]+0.117*[#  29]+0.117*[#   1]+0.002*[#   2]+0.002*[#   3]
          +0.002*[#   4]+0.002*[#   6]+0.002*[#   7]+0.002*[#   8]+0.002*[#  10]
          +0.002*[#  11]+0.002*[#  12]+0.002*[#  14]+0.002*[#  15]+0.002*[#  16]
          +0.002*[#  18]+0.002*[#  19]+0.002*[#  20]+0.002*[#  22]+0.002*[#  23]
          +0.002*[#  24]+0.002*[#  26]+0.002*[#  27]+0.002*[#  28]+0.002*[#  30]
          +0.002*[#  31]+0.002*[#  32]
    |psi|^2 = 0.993
==== e(   2) =    -2.88416 eV ==== 
     psi = 0.077*[#   5]+0.077*[#   9]+0.077*[#  13]+0.077*[#  17]+0.077*[#  21]
          +0.077*[#  25]+0.077*[#  29]+0.076*[#   1]+0.016*[#   2]+0.016*[#   3]
          +0.016*[#   4]+0.016*[#   6]+0.016*[#   7]+0.016*[#   8]+0.016*[#  10]
          +0.016*[#  11]+0.016*[#  12]+0.016*[#  14]+0.016*[#  15]+0.016*[#  16]
          +0.016*[#  18]+0.016*[#  19]+0.016*[#  20]+0.016*[#  22]+0.016*[#  23]
          +0.016*[#  24]+0.016*[#  26]+0.016*[#  27]+0.016*[#  28]+0.016*[#  30]
          +0.016*[#  31]+0.016*[#  32]
    |psi|^2 = 0.993
==== e(   3) =    -1.62947 eV ==== 
     psi = 0.147*[#   9]+0.147*[#  17]+0.147*[#  21]+0.147*[#  25]+0.017*[#   7]
          +0.017*[#  16]+0.017*[#  30]+0.011*[#   6]+0.011*[#   8]+0.011*[#  14]
          +0.011*[#  15]+0.011*[#  31]+0.011*[#  32]+0.006*[#   2]+0.006*[#   3]
          +0.006*[#   4]
    |psi|^2 = 0.724
==== e(   4) =    -1.62947 eV ==== 
     psi = 0.147*[#   9]+0.147*[#  17]+0.147*[#  21]+0.147*[#  25]+0.028*[#   2]
          +0.028*[#   3]+0.028*[#   4]+0.022*[#   6]+0.022*[#   8]+0.022*[#  14]
          +0.022*[#  15]+0.022*[#  31]+0.022*[#  32]+0.017*[#   7]+0.017*[#  16]
          +0.017*[#  30]
    |psi|^2 = 0.858
==== e(   5) =    -1.62936 eV ==== 
     psi = 0.196*[#   5]+0.196*[#  13]+0.196*[#  29]+0.034*[#  10]+0.034*[#  11]
          +0.034*[#  12]+0.034*[#  18]+0.034*[#  19]+0.034*[#  20]+0.034*[#  22]
          +0.034*[#  23]+0.034*[#  24]+0.034*[#  26]+0.034*[#  27]+0.034*[#  28]
          
    |psi|^2 = 0.993
==== e(   6) =    -1.62795 eV ==== 
     psi = 0.294*[#   1]+0.098*[#   5]+0.098*[#  13]+0.098*[#  29]+0.034*[#  10]
          +0.034*[#  11]+0.034*[#  12]+0.034*[#  18]+0.034*[#  19]+0.034*[#  20]
          +0.034*[#  22]+0.034*[#  23]+0.034*[#  24]+0.034*[#  26]+0.034*[#  27]
          +0.034*[#  28]
    |psi|^2 = 0.993
==== e(   7) =    -0.30800 eV ==== 
     psi = 0.068*[#   1]+0.068*[#   5]+0.068*[#   9]+0.068*[#  13]+0.068*[#  17]
          +0.068*[#  21]+0.068*[#  25]+0.068*[#  29]+0.036*[#  10]+0.036*[#  11]
          +0.036*[#  12]+0.036*[#  18]+0.036*[#  19]+0.036*[#  20]+0.036*[#  22]
          +0.036*[#  23]+0.036*[#  24]+0.036*[#  26]+0.036*[#  27]+0.036*[#  28]
          +0.019*[#   2]+0.019*[#   3]+0.019*[#   4]+0.019*[#   6]+0.019*[#   7]
          +0.019*[#   8]+0.019*[#  14]+0.019*[#  15]+0.019*[#  16]+0.019*[#  30]
          +0.019*[#  31]+0.019*[#  32]
    |psi|^2 = 1.195
==== e(   8) =     2.97062 eV ==== 
     psi = 0.075*[#   6]+0.075*[#   8]+0.075*[#  14]+0.075*[#  15]+0.075*[#  31]
          +0.075*[#  32]+0.039*[#  10]+0.039*[#  11]+0.039*[#  12]+0.039*[#  18]
          +0.039*[#  19]+0.039*[#  20]+0.039*[#  22]+0.039*[#  23]+0.039*[#  24]
          +0.039*[#  26]+0.039*[#  27]+0.039*[#  28]+0.004*[#   5]+0.004*[#  13]
          +0.004*[#  29]
    |psi|^2 = 0.929
==== e(   9) =     2.97089 eV ==== 
     psi = 0.045*[#   6]+0.045*[#   8]+0.045*[#  14]+0.045*[#  15]+0.045*[#  31]
          +0.045*[#  32]+0.044*[#   2]+0.044*[#   3]+0.044*[#   4]+0.044*[#   7]
          +0.044*[#  16]+0.044*[#  30]+0.037*[#  10]+0.037*[#  11]+0.037*[#  12]
          +0.037*[#  18]+0.037*[#  19]+0.037*[#  20]+0.037*[#  22]+0.037*[#  23]
          +0.037*[#  24]+0.037*[#  26]+0.037*[#  27]+0.037*[#  28]+0.003*[#   9]
          +0.003*[#  17]+0.003*[#  21]+0.003*[#  25]
    |psi|^2 = 0.993
==== e(  10) =     2.97089 eV ==== 
     psi = 0.044*[#   6]+0.044*[#   7]+0.044*[#   8]+0.044*[#  14]+0.044*[#  15]
          +0.044*[#  16]+0.044*[#  30]+0.044*[#  31]+0.044*[#  32]+0.044*[#   2]
          +0.044*[#   3]+0.044*[#   4]+0.037*[#  10]+0.037*[#  11]+0.037*[#  12]
          +0.037*[#  18]+0.037*[#  19]+0.037*[#  20]+0.037*[#  22]+0.037*[#  23]
          +0.037*[#  24]+0.037*[#  26]+0.037*[#  27]+0.037*[#  28]+0.003*[#   9]
          +0.003*[#  17]+0.003*[#  21]+0.003*[#  25]
    |psi|^2 = 0.993
==== e(  11) =     2.97118 eV ==== 
     psi = 0.110*[#   2]+0.110*[#   3]+0.110*[#   4]+0.088*[#   7]+0.088*[#  16]
          +0.088*[#  30]+0.024*[#   6]+0.024*[#   8]+0.024*[#  14]+0.024*[#  15]
          +0.024*[#  31]+0.024*[#  32]+0.022*[#  10]+0.022*[#  11]+0.022*[#  12]
          +0.022*[#  18]+0.022*[#  19]+0.022*[#  20]+0.022*[#  22]+0.022*[#  23]
          +0.022*[#  24]+0.022*[#  26]+0.022*[#  27]+0.022*[#  28]+0.006*[#   1]
          +0.002*[#   5]+0.002*[#  13]+0.002*[#  29]
    |psi|^2 = 1.018
==== e(  12) =     3.39927 eV ==== 
     psi = 0.056*[#   7]+0.056*[#  16]+0.056*[#  30]+0.045*[#   6]+0.045*[#   8]
          +0.045*[#  14]+0.045*[#  15]+0.045*[#  31]+0.045*[#  32]+0.034*[#   2]
          +0.034*[#   3]+0.034*[#   4]+0.019*[#  10]+0.019*[#  11]+0.019*[#  12]
          +0.019*[#  18]+0.019*[#  19]+0.019*[#  20]+0.019*[#  22]+0.019*[#  23]
          +0.019*[#  24]+0.019*[#  26]+0.019*[#  27]+0.019*[#  28]
    |psi|^2 = 0.769
==== e(  13) =     3.39927 eV ==== 
     psi = 0.041*[#   2]+0.041*[#   3]+0.041*[#   4]+0.041*[#   7]+0.041*[#   6]
          +0.041*[#   8]+0.041*[#  10]+0.041*[#  16]+0.041*[#  11]+0.041*[#  12]
          +0.041*[#  14]+0.041*[#  15]+0.041*[#  18]+0.041*[#  19]+0.041*[#  20]
          +0.041*[#  30]+0.041*[#  22]+0.041*[#  23]+0.041*[#  24]+0.041*[#  26]
          +0.041*[#  27]+0.041*[#  28]+0.041*[#  31]+0.041*[#  32]
    |psi|^2 = 0.994
==== e(  14) =     5.47279 eV ==== 
     psi = 0.056*[#  10]+0.056*[#  11]+0.056*[#  12]+0.056*[#  18]+0.056*[#  19]
          +0.056*[#  20]+0.056*[#  22]+0.056*[#  23]+0.056*[#  24]+0.056*[#  26]
          +0.056*[#  27]+0.056*[#  28]+0.049*[#   2]+0.049*[#   3]+0.049*[#   4]
          +0.049*[#   6]+0.049*[#   7]+0.049*[#   8]+0.049*[#  14]+0.049*[#  15]
          +0.049*[#  16]+0.049*[#  30]+0.049*[#  31]+0.049*[#  32]+0.022*[#   1]
          +0.022*[#   5]+0.022*[#   9]+0.022*[#  13]+0.022*[#  17]+0.022*[#  21]
          +0.022*[#  25]+0.022*[#  29]
    |psi|^2 = 1.437
==== e(  15) =     5.73469 eV ==== 
     psi = 0.038*[#   2]+0.038*[#   3]+0.038*[#   4]+0.038*[#   6]+0.038*[#   7]
          +0.038*[#   8]+0.038*[#  14]+0.038*[#  15]+0.038*[#  16]+0.038*[#  30]
          +0.038*[#  31]+0.038*[#  32]+0.013*[#  10]+0.013*[#  11]+0.013*[#  12]
          +0.013*[#  18]+0.013*[#  19]+0.013*[#  20]+0.013*[#  22]+0.013*[#  23]
          +0.013*[#  24]+0.013*[#  26]+0.013*[#  27]+0.013*[#  28]
    |psi|^2 = 0.618
==== e(  16) =     5.73469 eV ==== 
     psi = 0.027*[#  10]+0.027*[#  11]+0.027*[#  12]+0.027*[#  18]+0.027*[#  19]
          +0.027*[#  20]+0.027*[#  22]+0.027*[#  23]+0.027*[#  24]+0.027*[#  26]
          +0.027*[#  27]+0.027*[#  28]+0.002*[#   2]+0.002*[#   3]+0.002*[#   4]
          +0.002*[#   6]+0.002*[#   7]+0.002*[#   8]+0.002*[#  14]+0.002*[#  15]
          +0.002*[#  16]+0.002*[#  30]+0.002*[#  31]+0.002*[#  32]
    |psi|^2 = 0.355

 k =   0.1666666667  0.1666666667  0.0000000000
==== e(   1) =    -5.58652 eV ==== 
     psi = 0.112*[#   5]+0.112*[#   9]+0.112*[#  13]+0.112*[#  17]+0.112*[#  21]
          +0.112*[#  25]+0.112*[#  29]+0.111*[#   1]+0.004*[#   2]+0.004*[#   3]
          +0.004*[#   4]+0.004*[#   6]+0.004*[#   7]+0.004*[#   8]+0.004*[#  10]
          +0.004*[#  11]+0.004*[#  12]+0.004*[#  14]+0.004*[#  15]+0.004*[#  16]
          +0.004*[#  18]+0.004*[#  19]+0.004*[#  20]+0.004*[#  22]+0.004*[#  23]
          +0.004*[#  24]+0.004*[#  26]+0.004*[#  27]+0.004*[#  28]+0.004*[#  30]
          +0.004*[#  31]+0.004*[#  32]
    |psi|^2 = 0.993
==== e(   2) =    -2.80598 eV ==== 
     psi = 0.103*[#   5]+0.103*[#  13]+0.103*[#  29]+0.077*[#   9]+0.077*[#  17]
          +0.077*[#  21]+0.077*[#  25]+0.021*[#   2]+0.021*[#   3]+0.021*[#   4]
          +0.017*[#   6]+0.017*[#   8]+0.017*[#  10]+0.017*[#  11]+0.017*[#  12]
          +0.017*[#  14]+0.017*[#  15]+0.017*[#  18]+0.017*[#  19]+0.017*[#  20]
          +0.017*[#  22]+0.017*[#  23]+0.017*[#  24]+0.017*[#  26]+0.017*[#  27]
          +0.017*[#  28]+0.017*[#  31]+0.017*[#  32]+0.014*[#   7]+0.014*[#  16]
          +0.014*[#  30]
    |psi|^2 = 1.033
==== e(   3) =    -2.80522 eV ==== 
     psi = 0.155*[#   1]+0.077*[#   9]+0.077*[#  17]+0.077*[#  21]+0.077*[#  25]
          +0.052*[#   5]+0.052*[#  13]+0.052*[#  29]+0.019*[#   7]+0.019*[#  16]
          +0.019*[#  30]+0.016*[#   6]+0.016*[#   8]+0.016*[#  14]+0.016*[#  15]
          +0.016*[#  31]+0.016*[#  32]+0.016*[#  10]+0.016*[#  11]+0.016*[#  12]
          +0.016*[#  18]+0.016*[#  19]+0.016*[#  20]+0.016*[#  22]+0.016*[#  23]
          +0.016*[#  24]+0.016*[#  26]+0.016*[#  27]+0.016*[#  28]+0.012*[#   2]
          +0.012*[#   3]+0.012*[#   4]
    |psi|^2 = 0.994
==== e(   4) =    -1.80516 eV ==== 
     psi = 0.079*[#   9]+0.079*[#  17]+0.079*[#  21]+0.079*[#  25]+0.079*[#   1]
          +0.079*[#   5]+0.079*[#  13]+0.079*[#  29]+0.011*[#   2]+0.011*[#   3]
          +0.011*[#   4]+0.011*[#   7]+0.011*[#  16]+0.011*[#  30]+0.009*[#  10]
          +0.009*[#  11]+0.009*[#  12]+0.009*[#  18]+0.009*[#  19]+0.009*[#  20]
          +0.009*[#  22]+0.009*[#  23]+0.009*[#  24]+0.009*[#  26]+0.009*[#  27]
          +0.009*[#  28]+0.007*[#   6]+0.007*[#   8]+0.007*[#  14]+0.007*[#  15]
          +0.007*[#  31]+0.007*[#  32]
    |psi|^2 = 0.848
==== e(   5) =    -1.40568 eV ==== 
     psi = 0.070*[#   1]+0.070*[#   5]+0.070*[#  13]+0.070*[#  29]+0.069*[#   9]
          +0.069*[#  17]+0.069*[#  21]+0.069*[#  25]+0.018*[#   2]+0.018*[#   3]
          +0.018*[#   4]+0.018*[#   6]+0.018*[#   7]+0.018*[#   8]+0.018*[#  10]
          +0.018*[#  11]+0.018*[#  12]+0.018*[#  14]+0.018*[#  15]+0.018*[#  16]
          +0.018*[#  18]+0.018*[#  19]+0.018*[#  20]+0.018*[#  22]+0.018*[#  23]
          +0.018*[#  24]+0.018*[#  26]+0.018*[#  27]+0.018*[#  28]+0.018*[#  30]
          +0.018*[#  31]+0.018*[#  32]
    |psi|^2 = 0.993
==== e(   6) =    -0.34433 eV ==== 
     psi = 0.092*[#   5]+0.092*[#  13]+0.092*[#  29]+0.069*[#   9]+0.069*[#  17]
          +0.069*[#  21]+0.069*[#  25]+0.020*[#   2]+0.020*[#   3]+0.020*[#   4]
          +0.018*[#   6]+0.018*[#   8]+0.018*[#  10]+0.018*[#  11]+0.018*[#  12]
          +0.018*[#  14]+0.018*[#  15]+0.018*[#  18]+0.018*[#  19]+0.018*[#  20]
          +0.018*[#  22]+0.018*[#  23]+0.018*[#  24]+0.018*[#  26]+0.018*[#  27]
          +0.018*[#  28]+0.018*[#  31]+0.018*[#  32]+0.015*[#   7]+0.015*[#  16]
          +0.015*[#  30]
    |psi|^2 = 0.981
==== e(   7) =    -0.34382 eV ==== 
     psi = 0.138*[#   1]+0.069*[#   9]+0.069*[#  17]+0.069*[#  21]+0.069*[#  25]
          +0.046*[#   5]+0.046*[#  13]+0.046*[#  29]+0.020*[#   6]+0.020*[#   8]
          +0.020*[#  14]+0.020*[#  15]+0.020*[#  31]+0.020*[#  32]+0.019*[#   7]
          +0.019*[#  16]+0.019*[#  30]+0.018*[#  10]+0.018*[#  11]+0.018*[#  12]
          +0.018*[#  18]+0.018*[#  19]+0.018*[#  20]+0.018*[#  22]+0.018*[#  23]
          +0.018*[#  24]+0.018*[#  26]+0.018*[#  27]+0.018*[#  28]+0.014*[#   2]
          +0.014*[#   3]+0.014*[#   4]
    |psi|^2 = 0.993
==== e(   8) =     2.26764 eV ==== 
     psi = 0.043*[#   2]+0.043*[#   3]+0.043*[#   4]+0.043*[#   7]+0.043*[#  16]
          +0.043*[#  30]+0.042*[#  10]+0.042*[#  11]+0.042*[#  12]+0.042*[#  18]
          +0.042*[#  19]+0.042*[#  20]+0.042*[#  22]+0.042*[#  23]+0.042*[#  24]
          +0.042*[#  26]+0.042*[#  27]+0.042*[#  28]+0.041*[#   6]+0.041*[#   8]
          +0.041*[#  14]+0.041*[#  15]+0.041*[#  31]+0.041*[#  32]+0.001*[#   1]
          +0.001*[#   5]+0.001*[#   9]+0.001*[#  13]+0.001*[#  17]+0.001*[#  21]
          +0.001*[#  25]+0.001*[#  29]
    |psi|^2 = 1.014
==== e(   9) =     3.00585 eV ==== 
     psi = 0.061*[#   6]+0.061*[#   8]+0.061*[#  14]+0.061*[#  15]+0.061*[#  31]
          +0.061*[#  32]+0.040*[#  10]+0.040*[#  11]+0.040*[#  12]+0.040*[#  18]
          +0.040*[#  19]+0.040*[#  20]+0.040*[#  22]+0.040*[#  23]+0.040*[#  24]
          +0.040*[#  26]+0.040*[#  27]+0.040*[#  28]+0.034*[#   2]+0.034*[#   3]
          +0.034*[#   4]+0.006*[#   7]+0.006*[#  16]+0.006*[#  30]+0.005*[#   5]
          +0.005*[#  13]+0.005*[#  29]+0.003*[#   9]+0.003*[#  17]+0.003*[#  21]
          +0.003*[#  25]
    |psi|^2 = 0.993
==== e(  10) =     3.00589 eV ==== 
     psi = 0.051*[#   7]+0.051*[#  16]+0.051*[#  30]+0.030*[#  10]+0.030*[#  11]
          +0.030*[#  12]+0.030*[#  18]+0.030*[#  19]+0.030*[#  20]+0.030*[#  22]
          +0.030*[#  23]+0.030*[#  24]+0.030*[#  26]+0.030*[#  27]+0.030*[#  28]
          +0.023*[#   2]+0.023*[#   3]+0.023*[#   4]+0.023*[#   6]+0.023*[#   8]
          +0.023*[#  14]+0.023*[#  15]+0.023*[#  31]+0.023*[#  32]+0.007*[#   1]
          +0.003*[#   9]+0.003*[#  17]+0.003*[#  21]+0.003*[#  25]+0.002*[#   5]
          +0.002*[#  13]+0.002*[#  29]
    |psi|^2 = 0.743
==== e(  11) =     3.20562 eV ==== 
     psi = 0.081*[#   7]+0.081*[#  16]+0.081*[#  30]+0.048*[#   2]+0.048*[#   3]
          +0.048*[#   4]+0.044*[#  10]+0.044*[#  11]+0.044*[#  12]+0.044*[#  18]
          +0.044*[#  19]+0.044*[#  20]+0.044*[#  22]+0.044*[#  23]+0.044*[#  24]
          +0.044*[#  26]+0.044*[#  27]+0.044*[#  28]+0.024*[#   6]+0.024*[#   8]
          +0.024*[#  14]+0.024*[#  15]+0.024*[#  31]+0.024*[#  32]
    |psi|^2 = 1.056
==== e(  12) =     3.20630 eV ==== 
     psi = 0.043*[#   2]+0.043*[#   3]+0.043*[#   4]+0.040*[#   6]+0.040*[#   8]
          +0.040*[#  14]+0.040*[#  15]+0.040*[#  31]+0.040*[#  32]+0.034*[#  10]
          +0.034*[#  11]+0.034*[#  12]+0.034*[#  18]+0.034*[#  19]+0.034*[#  20]
          +0.034*[#  22]+0.034*[#  23]+0.034*[#  24]+0.034*[#  26]+0.034*[#  27]
          +0.034*[#  28]+0.010*[#   7]+0.010*[#  16]+0.010*[#  30]
    |psi|^2 = 0.807
==== e(  13) =     3.48375 eV ==== 
     psi = 0.041*[#   2]+0.041*[#   3]+0.041*[#   4]+0.041*[#   7]+0.041*[#   6]
          +0.041*[#   8]+0.041*[#  10]+0.041*[#  16]+0.041*[#  11]+0.041*[#  12]
          +0.041*[#  14]+0.041*[#  15]+0.041*[#  18]+0.041*[#  19]+0.041*[#  20]
          +0.041*[#  30]+0.041*[#  22]+0.041*[#  23]+0.041*[#  24]+0.041*[#  26]
          +0.041*[#  27]+0.041*[#  28]+0.041*[#  31]+0.041*[#  32]
    |psi|^2 = 0.994
==== e(  14) =     4.56822 eV ==== 
     psi = 0.047*[#   2]+0.047*[#   3]+0.047*[#   4]+0.047*[#   6]+0.047*[#   7]
          +0.047*[#   8]+0.047*[#  10]+0.047*[#  11]+0.047*[#  12]+0.047*[#  14]
          +0.047*[#  15]+0.047*[#  16]+0.047*[#  18]+0.047*[#  19]+0.047*[#  20]
          +0.047*[#  22]+0.047*[#  23]+0.047*[#  24]+0.047*[#  26]+0.047*[#  27]
          +0.047*[#  28]+0.047*[#  30]+0.047*[#  31]+0.047*[#  32]+0.026*[#   1]
          +0.026*[#   5]+0.026*[#   9]+0.026*[#  13]+0.026*[#  17]+0.026*[#  21]
          +0.026*[#  25]+0.026*[#  29]
    |psi|^2 = 1.332
==== e(  15) =     5.28998 eV ==== 
     psi = 0.016*[#   2]+0.016*[#   3]+0.016*[#   4]+0.016*[#   6]+0.016*[#   7]
          +0.016*[#   8]+0.016*[#  10]+0.016*[#  11]+0.016*[#  12]+0.016*[#  14]
          +0.016*[#  15]+0.016*[#  16]+0.016*[#  18]+0.016*[#  19]+0.016*[#  20]
          +0.016*[#  22]+0.016*[#  23]+0.016*[#  24]+0.016*[#  26]+0.016*[#  27]
          +0.016*[#  28]+0.016*[#  30]+0.016*[#  31]+0.016*[#  32]+0.003*[#   1]
          +0.003*[#   5]+0.003*[#   9]+0.003*[#  13]+0.003*[#  17]+0.003*[#  21]
          +0.003*[#  25]+0.003*[#  29]
    |psi|^2 = 0.418
==== e(  16) =     6.05492 eV ==== 
     psi = 0.054*[#   2]+0.054*[#   3]+0.054*[#   4]+0.053*[#   6]+0.054*[#   7]
          +0.053*[#   8]+0.054*[#  10]+0.054*[#  11]+0.054*[#  12]+0.053*[#  14]
          +0.053*[#  15]+0.054*[#  16]+0.054*[#  18]+0.054*[#  19]+0.054*[#  20]
          +0.054*[#  22]+0.054*[#  23]+0.054*[#  24]+0.054*[#  26]+0.054*[#  27]
          +0.054*[#  28]+0.054*[#  30]+0.053*[#  31]+0.053*[#  32]
    |psi|^2 = 1.285

 k =   0.3333333333  0.1666666667  0.0000000000
==== e(   1) =    -5.22585 eV ==== 
     psi = 0.100*[#   5]+0.100*[#   9]+0.100*[#  13]+0.100*[#  17]+0.100*[#  21]
          +0.100*[#  25]+0.100*[#  29]+0.100*[#   1]+0.008*[#   2]+0.008*[#   3]
          +0.008*[#   4]+0.008*[#   6]+0.008*[#   7]+0.008*[#   8]+0.008*[#  10]
          +0.008*[#  11]+0.008*[#  12]+0.008*[#  14]+0.008*[#  15]+0.008*[#  16]
          +0.008*[#  18]+0.008*[#  19]+0.008*[#  20]+0.008*[#  22]+0.008*[#  23]
          +0.008*[#  24]+0.008*[#  26]+0.008*[#  27]+0.008*[#  28]+0.008*[#  30]
          +0.008*[#  31]+0.008*[#  32]
    |psi|^2 = 0.993
==== e(   2) =    -3.81827 eV ==== 
     psi = 0.082*[#   5]+0.082*[#   9]+0.082*[#  13]+0.082*[#  17]+0.082*[#  21]
          +0.082*[#  25]+0.082*[#  29]+0.082*[#   1]+0.020*[#   2]+0.020*[#   3]
          +0.020*[#   4]+0.020*[#   6]+0.020*[#   7]+0.020*[#   8]+0.020*[#  10]
          +0.020*[#  11]+0.020*[#  12]+0.020*[#  14]+0.020*[#  15]+0.020*[#  16]
          +0.020*[#  18]+0.020*[#  19]+0.020*[#  20]+0.020*[#  22]+0.020*[#  23]
          +0.020*[#  24]+0.020*[#  26]+0.020*[#  27]+0.020*[#  28]+0.020*[#  30]
          +0.020*[#  31]+0.020*[#  32]
    |psi|^2 = 1.141
==== e(   3) =    -2.58837 eV ==== 
     psi = 0.080*[#   5]+0.080*[#   9]+0.080*[#  13]+0.080*[#  17]+0.080*[#  21]
          +0.080*[#  25]+0.080*[#  29]+0.079*[#   1]+0.013*[#   2]+0.013*[#   3]
          +0.013*[#   4]+0.013*[#   6]+0.013*[#   7]+0.013*[#   8]+0.013*[#  10]
          +0.013*[#  11]+0.013*[#  12]+0.013*[#  14]+0.013*[#  15]+0.013*[#  16]
          +0.013*[#  18]+0.013*[#  19]+0.013*[#  20]+0.013*[#  22]+0.013*[#  23]
          +0.013*[#  24]+0.013*[#  26]+0.013*[#  27]+0.013*[#  28]+0.013*[#  30]
          +0.013*[#  31]+0.013*[#  32]
    |psi|^2 = 0.955
==== e(   4) =    -2.01187 eV ==== 
     psi = 0.083*[#   1]+0.083*[#   9]+0.083*[#  17]+0.083*[#  21]+0.083*[#  25]
          +0.083*[#   5]+0.083*[#  13]+0.083*[#  29]+0.018*[#   2]+0.018*[#   3]
          +0.018*[#   4]+0.018*[#   6]+0.018*[#   7]+0.018*[#   8]+0.018*[#  10]
          +0.018*[#  11]+0.018*[#  12]+0.018*[#  14]+0.018*[#  15]+0.018*[#  16]
          +0.018*[#  18]+0.018*[#  19]+0.018*[#  20]+0.018*[#  22]+0.018*[#  23]
          +0.018*[#  24]+0.018*[#  26]+0.018*[#  27]+0.018*[#  28]+0.018*[#  30]
          +0.018*[#  31]+0.018*[#  32]
    |psi|^2 = 1.088
==== e(   5) =    -1.10536 eV ==== 
     psi = 0.068*[#   1]+0.068*[#   5]+0.068*[#  13]+0.068*[#  29]+0.068*[#   9]
          +0.068*[#  17]+0.068*[#  21]+0.068*[#  25]+0.019*[#   2]+0.019*[#   3]
          +0.019*[#   4]+0.019*[#   6]+0.019*[#   7]+0.019*[#   8]+0.019*[#  10]
          +0.019*[#  11]+0.019*[#  12]+0.019*[#  14]+0.019*[#  15]+0.019*[#  16]
          +0.019*[#  18]+0.019*[#  19]+0.019*[#  20]+0.019*[#  22]+0.019*[#  23]
          +0.019*[#  24]+0.019*[#  26]+0.019*[#  27]+0.019*[#  28]+0.019*[#  30]
          +0.019*[#  31]+0.019*[#  32]
    |psi|^2 = 0.994
==== e(   6) =    -0.48760 eV ==== 
     psi = 0.070*[#   1]+0.070*[#   5]+0.070*[#   9]+0.070*[#  13]+0.070*[#  17]
          +0.070*[#  21]+0.070*[#  25]+0.070*[#  29]+0.014*[#   2]+0.014*[#   3]
          +0.014*[#   4]+0.014*[#   6]+0.014*[#   7]+0.014*[#   8]+0.014*[#  10]
          +0.014*[#  11]+0.014*[#  12]+0.014*[#  14]+0.014*[#  15]+0.014*[#  16]
          +0.014*[#  18]+0.014*[#  19]+0.014*[#  20]+0.014*[#  22]+0.014*[#  23]
          +0.014*[#  24]+0.014*[#  26]+0.014*[#  27]+0.014*[#  28]+0.014*[#  30]
          +0.014*[#  31]+0.014*[#  32]
    |psi|^2 = 0.887
==== e(   7) =     0.97059 eV ==== 
     psi = 0.062*[#   1]+0.062*[#   5]+0.062*[#   9]+0.062*[#  13]+0.062*[#  17]
          +0.062*[#  21]+0.062*[#  25]+0.062*[#  29]+0.023*[#   2]+0.023*[#   3]
          +0.023*[#   4]+0.023*[#   6]+0.023*[#   7]+0.023*[#   8]+0.023*[#  10]
          +0.023*[#  11]+0.023*[#  12]+0.023*[#  14]+0.023*[#  15]+0.023*[#  16]
          +0.023*[#  18]+0.023*[#  19]+0.023*[#  20]+0.023*[#  22]+0.023*[#  23]
          +0.023*[#  24]+0.023*[#  26]+0.023*[#  27]+0.023*[#  28]+0.023*[#  30]
          +0.023*[#  31]+0.023*[#  32]
    |psi|^2 = 1.058
==== e(   8) =     1.85450 eV ==== 
     psi = 0.029*[#   2]+0.029*[#   3]+0.029*[#   4]+0.029*[#   6]+0.029*[#   7]
          +0.029*[#   8]+0.029*[#  10]+0.029*[#  11]+0.029*[#  12]+0.029*[#  14]
          +0.029*[#  15]+0.029*[#  16]+0.029*[#  18]+0.029*[#  19]+0.029*[#  20]
          +0.029*[#  22]+0.029*[#  23]+0.029*[#  24]+0.029*[#  26]+0.029*[#  27]
          +0.029*[#  28]+0.029*[#  30]+0.029*[#  31]+0.029*[#  32]
    |psi|^2 = 0.707
==== e(   9) =     2.34633 eV ==== 
     psi = 0.040*[#   2]+0.040*[#   3]+0.040*[#   4]+0.040*[#   6]+0.040*[#   7]
          +0.040*[#   8]+0.040*[#  10]+0.040*[#  11]+0.040*[#  12]+0.040*[#  14]
          +0.040*[#  15]+0.040*[#  16]+0.040*[#  18]+0.040*[#  19]+0.040*[#  20]
          +0.040*[#  22]+0.040*[#  23]+0.040*[#  24]+0.040*[#  26]+0.040*[#  27]
          +0.040*[#  28]+0.040*[#  30]+0.040*[#  31]+0.040*[#  32]+0.004*[#   1]
          +0.004*[#   5]+0.004*[#   9]+0.004*[#  13]+0.004*[#  17]+0.004*[#  21]
          +0.004*[#  25]+0.004*[#  29]
    |psi|^2 = 0.993
==== e(  10) =     2.97326 eV ==== 
     psi = 0.043*[#   7]+0.043*[#   2]+0.043*[#   4]+0.043*[#   6]+0.043*[#   3]
          +0.043*[#   8]+0.043*[#  16]+0.043*[#  10]+0.043*[#  11]+0.043*[#  12]
          +0.043*[#  14]+0.043*[#  15]+0.043*[#  18]+0.043*[#  19]+0.043*[#  20]
          +0.043*[#  22]+0.043*[#  23]+0.043*[#  24]+0.043*[#  26]+0.043*[#  27]
          +0.043*[#  28]+0.043*[#  30]+0.043*[#  31]+0.043*[#  32]
    |psi|^2 = 1.024
==== e(  11) =     3.29155 eV ==== 
     psi = 0.032*[#   6]+0.032*[#   8]+0.032*[#  14]+0.032*[#  15]+0.032*[#  31]
          +0.032*[#  32]+0.032*[#   7]+0.032*[#  10]+0.032*[#  11]+0.032*[#  12]
          +0.032*[#  16]+0.032*[#  18]+0.032*[#  19]+0.032*[#  20]+0.032*[#  22]
          +0.032*[#  23]+0.032*[#  24]+0.032*[#  26]+0.032*[#  27]+0.032*[#  28]
          +0.032*[#  30]+0.031*[#   2]+0.031*[#   3]+0.031*[#   4]+0.005*[#   1]
          +0.005*[#   5]+0.005*[#   9]+0.005*[#  13]+0.005*[#  17]+0.005*[#  21]
          +0.005*[#  25]+0.005*[#  29]
    |psi|^2 = 0.802
==== e(  12) =     3.36033 eV ==== 
     psi = 0.056*[#   2]+0.056*[#   3]+0.056*[#   4]+0.056*[#   7]+0.056*[#  16]
          +0.056*[#  30]+0.056*[#  10]+0.056*[#  11]+0.056*[#  12]+0.056*[#  18]
          +0.056*[#  19]+0.056*[#  20]+0.056*[#  22]+0.056*[#  23]+0.056*[#  24]
          +0.056*[#  26]+0.056*[#  27]+0.056*[#  28]+0.055*[#   6]+0.055*[#   8]
          +0.055*[#  14]+0.055*[#  15]+0.055*[#  31]+0.055*[#  32]+0.001*[#   1]
          +0.001*[#   5]+0.001*[#   9]+0.001*[#  13]+0.001*[#  17]+0.001*[#  21]
          +0.001*[#  25]+0.001*[#  29]
    |psi|^2 = 1.346
==== e(  13) =     3.42764 eV ==== 
     psi = 0.038*[#   1]+0.038*[#   5]+0.038*[#   9]+0.038*[#  13]+0.038*[#  17]
          +0.038*[#  21]+0.038*[#  25]+0.038*[#  29]+0.028*[#   2]+0.028*[#   3]
          +0.028*[#   4]+0.028*[#   6]+0.028*[#   8]+0.028*[#  10]+0.028*[#  11]
          +0.028*[#  12]+0.028*[#  14]+0.028*[#  15]+0.028*[#  18]+0.028*[#  19]
          +0.028*[#  20]+0.028*[#  22]+0.028*[#  23]+0.028*[#  24]+0.028*[#  26]
          +0.028*[#  27]+0.028*[#  28]+0.028*[#  31]+0.028*[#  32]+0.028*[#   7]
          +0.028*[#  16]+0.028*[#  30]
    |psi|^2 = 0.983
==== e(  14) =     3.72790 eV ==== 
     psi = 0.041*[#   2]+0.041*[#   3]+0.041*[#   4]+0.041*[#   6]+0.041*[#   7]
          +0.041*[#   8]+0.041*[#  10]+0.041*[#  11]+0.041*[#  12]+0.041*[#  14]
          +0.041*[#  15]+0.041*[#  16]+0.041*[#  18]+0.041*[#  19]+0.041*[#  20]
          +0.041*[#  22]+0.041*[#  23]+0.041*[#  24]+0.041*[#  26]+0.041*[#  27]
          +0.041*[#  28]+0.041*[#  30]+0.041*[#  31]+0.041*[#  32]
    |psi|^2 = 0.984
==== e(  15) =     4.50839 eV ==== 
     psi = 0.029*[#   2]+0.029*[#   3]+0.029*[#   4]+0.029*[#   6]+0.029*[#   7]
          +0.029*[#   8]+0.029*[#  10]+0.029*[#  11]+0.029*[#  12]+0.029*[#  14]
          +0.029*[#  15]+0.029*[#  16]+0.029*[#  18]+0.029*[#  19]+0.029*[#  20]
          +0.029*[#  22]+0.029*[#  23]+0.029*[#  24]+0.029*[#  26]+0.029*[#  27]
          +0.029*[#  28]+0.029*[#  30]+0.029*[#  31]+0.029*[#  32]+0.005*[#   1]
          +0.005*[#   5]+0.005*[#   9]+0.005*[#  13]+0.005*[#  17]+0.005*[#  21]
          +0.005*[#  25]+0.005*[#  29]
    |psi|^2 = 0.743
==== e(  16) =     5.45761 eV ==== 
     psi = 0.040*[#   2]+0.040*[#   3]+0.040*[#   4]+0.040*[#   6]+0.040*[#   7]
          +0.040*[#   8]+0.040*[#  10]+0.040*[#  11]+0.040*[#  12]+0.040*[#  14]
          +0.040*[#  15]+0.040*[#  16]+0.040*[#  18]+0.040*[#  19]+0.040*[#  20]
          +0.040*[#  22]+0.040*[#  23]+0.040*[#  24]+0.040*[#  26]+0.040*[#  27]
          +0.040*[#  28]+0.040*[#  30]+0.040*[#  31]+0.040*[#  32]+0.003*[#   1]
          +0.003*[#   5]+0.003*[#   9]+0.003*[#  13]+0.003*[#  17]+0.003*[#  21]
          +0.003*[#  25]+0.003*[#  29]
    |psi|^2 = 0.991

 k =   0.5000000000  0.1666666667  0.0000000000
==== e(   1) =    -4.63271 eV ==== 
     psi = 0.120*[#   5]+0.120*[#  13]+0.120*[#  29]+0.090*[#   9]+0.090*[#  17]
          +0.090*[#  21]+0.090*[#  25]+0.023*[#   7]+0.023*[#  16]+0.023*[#  30]
          +0.021*[#   2]+0.021*[#   3]+0.021*[#   4]+0.011*[#  10]+0.011*[#  11]
          +0.011*[#  12]+0.011*[#  18]+0.011*[#  19]+0.011*[#  20]+0.011*[#  22]
          +0.011*[#  23]+0.011*[#  24]+0.011*[#  26]+0.011*[#  27]+0.011*[#  28]
          +0.001*[#   6]+0.001*[#   8]+0.001*[#  14]+0.001*[#  15]+0.001*[#  31]
          +0.001*[#  32]
    |psi|^2 = 0.993
==== e(   2) =    -4.63166 eV ==== 
     psi = 0.180*[#   1]+0.090*[#   9]+0.090*[#  17]+0.090*[#  21]+0.090*[#  25]
          +0.060*[#   5]+0.060*[#  13]+0.060*[#  29]+0.032*[#   6]+0.032*[#   8]
          +0.032*[#  14]+0.032*[#  15]+0.032*[#  31]+0.032*[#  32]+0.023*[#   2]
          +0.023*[#   3]+0.023*[#   4]+0.022*[#  10]+0.022*[#  11]+0.022*[#  12]
          +0.022*[#  18]+0.022*[#  19]+0.022*[#  20]+0.022*[#  22]+0.022*[#  23]
          +0.022*[#  24]+0.022*[#  26]+0.022*[#  27]+0.022*[#  28]
    |psi|^2 = 1.239
==== e(   3) =    -2.29294 eV ==== 
     psi = 0.110*[#   5]+0.110*[#  13]+0.110*[#  29]+0.082*[#   9]+0.082*[#  17]
          +0.082*[#  21]+0.082*[#  25]+0.019*[#   7]+0.019*[#  16]+0.019*[#  30]
          +0.009*[#  10]+0.009*[#  11]+0.009*[#  12]+0.009*[#  18]+0.009*[#  19]
          +0.009*[#  20]+0.009*[#  22]+0.009*[#  23]+0.009*[#  24]+0.009*[#  26]
          +0.009*[#  27]+0.009*[#  28]+0.008*[#   6]+0.008*[#   8]+0.008*[#  14]
          +0.008*[#  15]+0.008*[#  31]+0.008*[#  32]+0.002*[#   2]+0.002*[#   3]
          +0.002*[#   4]
    |psi|^2 = 0.883
==== e(   4) =    -2.29202 eV ==== 
     psi = 0.164*[#   1]+0.082*[#   9]+0.082*[#  17]+0.082*[#  21]+0.082*[#  25]
          +0.055*[#   5]+0.055*[#  13]+0.055*[#  29]+0.021*[#   7]+0.021*[#  16]
          +0.021*[#  30]+0.021*[#   6]+0.021*[#   8]+0.021*[#  14]+0.021*[#  15]
          +0.021*[#  31]+0.021*[#  32]+0.020*[#  10]+0.020*[#  11]+0.020*[#  12]
          +0.020*[#  18]+0.020*[#  19]+0.020*[#  20]+0.020*[#  22]+0.020*[#  23]
          +0.020*[#  24]+0.020*[#  26]+0.020*[#  27]+0.020*[#  28]+0.017*[#   2]
          +0.017*[#   3]+0.017*[#   4]
    |psi|^2 = 1.128
==== e(   5) =    -0.76680 eV ==== 
     psi = 0.092*[#   5]+0.092*[#  13]+0.092*[#  29]+0.069*[#   9]+0.069*[#  17]
          +0.069*[#  21]+0.069*[#  25]+0.023*[#   2]+0.023*[#   3]+0.023*[#   4]
          +0.018*[#  10]+0.018*[#  11]+0.018*[#  12]+0.018*[#  18]+0.018*[#  19]
          +0.018*[#  20]+0.018*[#  22]+0.018*[#  23]+0.018*[#  24]+0.018*[#  26]
          +0.018*[#  27]+0.018*[#  28]+0.017*[#   6]+0.017*[#   8]+0.017*[#  14]
          +0.017*[#  15]+0.017*[#  31]+0.017*[#  32]+0.015*[#   7]+0.015*[#  16]
          +0.015*[#  30]
    |psi|^2 = 0.994
==== e(   6) =    -0.76629 eV ==== 
     psi = 0.138*[#   1]+0.069*[#   9]+0.069*[#  17]+0.069*[#  21]+0.069*[#  25]
          +0.046*[#   5]+0.046*[#  13]+0.046*[#  29]+0.015*[#   2]+0.015*[#   3]
          +0.015*[#   4]+0.009*[#   6]+0.009*[#   8]+0.009*[#  14]+0.009*[#  15]
          +0.009*[#  31]+0.009*[#  32]+0.009*[#  10]+0.009*[#  11]+0.009*[#  12]
          +0.009*[#  18]+0.009*[#  19]+0.009*[#  20]+0.009*[#  22]+0.009*[#  23]
          +0.009*[#  24]+0.009*[#  26]+0.009*[#  27]+0.009*[#  28]
    |psi|^2 = 0.759
==== e(   7) =     1.89706 eV ==== 
     psi = 0.049*[#   6]+0.049*[#   8]+0.049*[#  14]+0.049*[#  15]+0.049*[#  31]
          +0.049*[#  32]+0.035*[#  10]+0.035*[#  11]+0.035*[#  12]+0.035*[#  18]
          +0.035*[#  19]+0.035*[#  20]+0.035*[#  22]+0.035*[#  23]+0.035*[#  24]
          +0.035*[#  26]+0.035*[#  27]+0.035*[#  28]+0.021*[#   7]+0.021*[#  16]
          +0.021*[#  30]+0.020*[#   2]+0.020*[#   3]+0.020*[#   4]+0.003*[#   1]
          +0.002*[#   9]+0.002*[#  17]+0.002*[#  21]+0.002*[#  25]+0.001*[#   5]
          +0.001*[#  13]+0.001*[#  29]
    |psi|^2 = 0.858
==== e(   8) =     1.89734 eV ==== 
     psi = 0.051*[#   7]+0.051*[#  16]+0.051*[#  30]+0.028*[#   2]+0.028*[#   3]
          +0.028*[#   4]+0.025*[#  10]+0.025*[#  11]+0.025*[#  12]+0.025*[#  18]
          +0.025*[#  19]+0.025*[#  20]+0.025*[#  22]+0.025*[#  23]+0.025*[#  24]
          +0.025*[#  26]+0.025*[#  27]+0.025*[#  28]+0.011*[#   6]+0.011*[#   8]
          +0.011*[#  14]+0.011*[#  15]+0.011*[#  31]+0.011*[#  32]+0.002*[#   5]
          +0.002*[#  13]+0.002*[#  29]+0.002*[#   9]+0.002*[#  17]+0.002*[#  21]
          +0.002*[#  25]
    |psi|^2 = 0.623
==== e(   9) =     2.23554 eV ==== 
     psi = 0.103*[#   1]+0.051*[#   9]+0.051*[#  17]+0.051*[#  21]+0.051*[#  25]
          +0.040*[#   6]+0.040*[#   8]+0.040*[#  14]+0.040*[#  15]+0.040*[#  31]
          +0.040*[#  32]+0.034*[#   5]+0.034*[#  13]+0.034*[#  29]+0.024*[#  10]
          +0.024*[#  11]+0.024*[#  12]+0.024*[#  18]+0.024*[#  19]+0.024*[#  20]
          +0.024*[#  22]+0.024*[#  23]+0.024*[#  24]+0.024*[#  26]+0.024*[#  27]
          +0.024*[#  28]+0.010*[#   7]+0.010*[#  16]+0.010*[#  30]+0.006*[#   2]
          +0.006*[#   3]+0.006*[#   4]
    |psi|^2 = 0.987
==== e(  10) =     2.23572 eV ==== 
     psi = 0.070*[#   7]+0.070*[#  16]+0.070*[#  30]+0.069*[#   5]+0.069*[#  13]
          +0.069*[#  29]+0.051*[#   9]+0.051*[#  17]+0.051*[#  21]+0.051*[#  25]
          +0.035*[#  10]+0.035*[#  11]+0.035*[#  12]+0.035*[#  18]+0.035*[#  19]
          +0.035*[#  20]+0.035*[#  22]+0.035*[#  23]+0.035*[#  24]+0.035*[#  26]
          +0.035*[#  27]+0.035*[#  28]+0.032*[#   2]+0.032*[#   3]+0.032*[#   4]
          +0.019*[#   6]+0.019*[#   8]+0.019*[#  14]+0.019*[#  15]+0.019*[#  31]
          +0.019*[#  32]
    |psi|^2 = 1.258
==== e(  11) =     3.04468 eV ==== 
     psi = 0.066*[#   7]+0.066*[#  16]+0.066*[#  30]+0.043*[#   2]+0.043*[#   3]
          +0.043*[#   4]+0.038*[#  10]+0.038*[#  11]+0.038*[#  12]+0.038*[#  18]
          +0.038*[#  19]+0.038*[#  20]+0.038*[#  22]+0.038*[#  23]+0.038*[#  24]
          +0.038*[#  26]+0.038*[#  27]+0.038*[#  28]+0.021*[#   6]+0.021*[#   8]
          +0.021*[#  14]+0.021*[#  15]+0.021*[#  31]+0.021*[#  32]+0.001*[#   5]
          +0.001*[#  13]+0.001*[#  29]+0.001*[#   9]+0.001*[#  17]+0.001*[#  21]
          +0.001*[#  25]
    |psi|^2 = 0.910
==== e(  12) =     3.04476 eV ==== 
     psi = 0.066*[#   6]+0.066*[#   8]+0.066*[#  14]+0.066*[#  15]+0.066*[#  31]
          +0.066*[#  32]+0.064*[#   2]+0.064*[#   3]+0.064*[#   4]+0.049*[#  10]
          +0.049*[#  11]+0.049*[#  12]+0.049*[#  18]+0.049*[#  19]+0.049*[#  20]
          +0.049*[#  22]+0.049*[#  23]+0.049*[#  24]+0.049*[#  26]+0.049*[#  27]
          +0.049*[#  28]+0.002*[#   1]+0.001*[#   9]+0.001*[#  17]+0.001*[#  21]
          +0.001*[#  25]
    |psi|^2 = 1.181
==== e(  13) =     3.80535 eV ==== 
     psi = 0.046*[#   7]+0.046*[#  16]+0.046*[#  30]+0.042*[#   6]+0.042*[#   8]
          +0.042*[#  14]+0.042*[#  15]+0.042*[#  31]+0.042*[#  32]+0.039*[#  10]
          +0.039*[#  11]+0.039*[#  12]+0.039*[#  18]+0.039*[#  19]+0.039*[#  20]
          +0.039*[#  22]+0.039*[#  23]+0.039*[#  24]+0.039*[#  26]+0.039*[#  27]
          +0.039*[#  28]+0.027*[#   2]+0.027*[#   3]+0.027*[#   4]+0.012*[#   1]
          +0.006*[#   9]+0.006*[#  17]+0.006*[#  21]+0.006*[#  25]+0.004*[#   5]
          +0.004*[#  13]+0.004*[#  29]
    |psi|^2 = 0.989
==== e(  14) =     3.80571 eV ==== 
     psi = 0.039*[#   7]+0.039*[#  16]+0.039*[#  30]+0.020*[#  10]+0.020*[#  11]
          +0.020*[#  12]+0.020*[#  18]+0.020*[#  19]+0.020*[#  20]+0.020*[#  22]
          +0.020*[#  23]+0.020*[#  24]+0.020*[#  26]+0.020*[#  27]+0.020*[#  28]
          +0.017*[#   6]+0.017*[#   8]+0.017*[#  14]+0.017*[#  15]+0.017*[#  31]
          +0.017*[#  32]+0.008*[#   5]+0.008*[#  13]+0.008*[#  29]+0.006*[#   2]
          +0.006*[#   3]+0.006*[#   4]+0.006*[#   9]+0.006*[#  17]+0.006*[#  21]
          +0.006*[#  25]
    |psi|^2 = 0.520
==== e(  15) =     4.52337 eV ==== 
     psi = 0.062*[#   2]+0.062*[#   3]+0.062*[#   4]+0.060*[#   7]+0.060*[#  16]
[...]
          +0.015*[#  25]+0.002*[#   1]
    |psi|^2 = 1.156
==== e(  15) =     4.40345 eV ==== 
     psi = 0.042*[#   7]+0.042*[#  16]+0.042*[#  30]+0.030*[#   6]+0.030*[#   8]
          +0.030*[#  10]+0.030*[#  11]+0.030*[#  12]+0.030*[#  14]+0.030*[#  15]
          +0.030*[#  18]+0.030*[#  19]+0.030*[#  20]+0.030*[#  22]+0.030*[#  23]
          +0.030*[#  24]+0.030*[#  26]+0.030*[#  27]+0.030*[#  28]+0.030*[#  31]
          +0.030*[#  32]+0.019*[#   2]+0.019*[#   3]+0.019*[#   4]
    |psi|^2 = 0.728
==== e(  16) =     4.40456 eV ==== 
     psi = 0.069*[#   2]+0.069*[#   3]+0.069*[#   4]+0.037*[#   6]+0.037*[#   8]
          +0.037*[#  10]+0.037*[#  11]+0.037*[#  12]+0.037*[#  14]+0.037*[#  15]
          +0.037*[#  18]+0.037*[#  19]+0.037*[#  20]+0.037*[#  22]+0.037*[#  23]
          +0.037*[#  24]+0.037*[#  26]+0.037*[#  27]+0.037*[#  28]+0.037*[#  31]
          +0.037*[#  32]+0.006*[#   7]+0.006*[#  16]+0.006*[#  30]
    |psi|^2 = 0.896

 k =   0.6666666667  0.8333333333  0.8333333333
==== e(   1) =    -5.11005 eV ==== 
     psi = 0.098*[#   5]+0.098*[#   9]+0.098*[#  13]+0.098*[#  17]+0.098*[#  21]
          +0.098*[#  25]+0.098*[#  29]+0.098*[#   1]+0.009*[#   2]+0.009*[#   3]
          +0.009*[#   4]+0.009*[#   6]+0.009*[#   7]+0.009*[#   8]+0.009*[#  10]
          +0.009*[#  11]+0.009*[#  12]+0.009*[#  14]+0.009*[#  15]+0.009*[#  16]
          +0.009*[#  18]+0.009*[#  19]+0.009*[#  20]+0.009*[#  22]+0.009*[#  23]
          +0.009*[#  24]+0.009*[#  26]+0.009*[#  27]+0.009*[#  28]+0.009*[#  30]
          +0.009*[#  31]+0.009*[#  32]
    |psi|^2 = 0.993
==== e(   2) =    -3.72624 eV ==== 
     psi = 0.083*[#   5]+0.083*[#   9]+0.083*[#  13]+0.083*[#  17]+0.083*[#  21]
          +0.083*[#  25]+0.083*[#  29]+0.083*[#   1]+0.019*[#   2]+0.019*[#   3]
          +0.019*[#   4]+0.019*[#   6]+0.019*[#   7]+0.019*[#   8]+0.019*[#  10]
          +0.019*[#  11]+0.019*[#  12]+0.019*[#  14]+0.019*[#  15]+0.019*[#  16]
          +0.019*[#  18]+0.019*[#  19]+0.019*[#  20]+0.019*[#  22]+0.019*[#  23]
          +0.019*[#  24]+0.019*[#  26]+0.019*[#  27]+0.019*[#  28]+0.019*[#  30]
          +0.019*[#  31]+0.019*[#  32]
    |psi|^2 = 1.118
==== e(   3) =    -2.61387 eV ==== 
     psi = 0.111*[#   5]+0.111*[#  13]+0.111*[#  29]+0.083*[#   9]+0.083*[#  17]
          +0.083*[#  21]+0.083*[#  25]+0.009*[#   6]+0.009*[#   8]+0.009*[#  14]
          +0.009*[#  15]+0.009*[#  31]+0.009*[#  32]+0.008*[#  10]+0.008*[#  11]
          +0.008*[#  12]+0.008*[#  18]+0.008*[#  19]+0.008*[#  20]+0.008*[#  22]
          +0.008*[#  23]+0.008*[#  24]+0.008*[#  26]+0.008*[#  27]+0.008*[#  28]
          +0.007*[#   2]+0.007*[#   3]+0.007*[#   4]+0.007*[#   7]+0.007*[#  16]
          +0.007*[#  30]
    |psi|^2 = 0.855
==== e(   4) =    -2.61302 eV ==== 
     psi = 0.166*[#   1]+0.083*[#   9]+0.083*[#  17]+0.083*[#  21]+0.083*[#  25]
          +0.055*[#   5]+0.055*[#  13]+0.055*[#  29]+0.021*[#   7]+0.021*[#  16]
          +0.021*[#  30]+0.020*[#   2]+0.020*[#   3]+0.020*[#   4]+0.020*[#  10]
          +0.020*[#  11]+0.020*[#  12]+0.020*[#  18]+0.020*[#  19]+0.020*[#  20]
          +0.020*[#  22]+0.020*[#  23]+0.020*[#  24]+0.020*[#  26]+0.020*[#  27]
          +0.020*[#  28]+0.019*[#   6]+0.019*[#   8]+0.019*[#  14]+0.019*[#  15]
          +0.019*[#  31]+0.019*[#  32]
    |psi|^2 = 1.136
==== e(   5) =    -0.58901 eV ==== 
     psi = 0.084*[#   5]+0.084*[#  13]+0.084*[#  29]+0.063*[#   9]+0.063*[#  17]
          +0.063*[#  21]+0.063*[#  25]+0.028*[#   2]+0.028*[#   3]+0.028*[#   4]
          +0.023*[#   6]+0.023*[#   8]+0.023*[#  14]+0.023*[#  15]+0.023*[#  31]
          +0.023*[#  32]+0.020*[#  10]+0.020*[#  11]+0.020*[#  12]+0.020*[#  18]
          +0.020*[#  19]+0.020*[#  20]+0.020*[#  22]+0.020*[#  23]+0.020*[#  24]
          +0.020*[#  26]+0.020*[#  27]+0.020*[#  28]+0.008*[#   7]+0.008*[#  16]
          +0.008*[#  30]
    |psi|^2 = 0.993
==== e(   6) =    -0.58871 eV ==== 
     psi = 0.126*[#   1]+0.063*[#   9]+0.063*[#  17]+0.063*[#  21]+0.063*[#  25]
          +0.042*[#   5]+0.042*[#  13]+0.042*[#  29]+0.026*[#   7]+0.026*[#  16]
          +0.026*[#  30]+0.015*[#  10]+0.015*[#  11]+0.015*[#  12]+0.015*[#  18]
          +0.015*[#  19]+0.015*[#  20]+0.015*[#  22]+0.015*[#  23]+0.015*[#  24]
          +0.015*[#  26]+0.015*[#  27]+0.015*[#  28]+0.012*[#   6]+0.012*[#   8]
          +0.012*[#  14]+0.012*[#  15]+0.012*[#  31]+0.012*[#  32]+0.010*[#   2]
          +0.010*[#   3]+0.010*[#   4]
    |psi|^2 = 0.853
==== e(   7) =     0.69477 eV ==== 
     psi = 0.058*[#   1]+0.058*[#   5]+0.058*[#   9]+0.058*[#  13]+0.058*[#  17]
          +0.058*[#  21]+0.058*[#  25]+0.058*[#  29]+0.031*[#   7]+0.031*[#  16]
          +0.031*[#  30]+0.026*[#   6]+0.026*[#   8]+0.026*[#  10]+0.026*[#  11]
          +0.026*[#  12]+0.026*[#  14]+0.026*[#  15]+0.026*[#  18]+0.026*[#  19]
          +0.026*[#  20]+0.026*[#  22]+0.026*[#  23]+0.026*[#  24]+0.026*[#  26]
          +0.026*[#  27]+0.026*[#  28]+0.026*[#  31]+0.026*[#  32]+0.021*[#   2]
          +0.021*[#   3]+0.021*[#   4]
    |psi|^2 = 1.098
==== e(   8) =     2.16363 eV ==== 
     psi = 0.042*[#   6]+0.042*[#   8]+0.042*[#  14]+0.042*[#  15]+0.042*[#  31]
          +0.042*[#  32]+0.029*[#  10]+0.029*[#  11]+0.029*[#  12]+0.029*[#  18]
          +0.029*[#  19]+0.029*[#  20]+0.029*[#  22]+0.029*[#  23]+0.029*[#  24]
          +0.029*[#  26]+0.029*[#  27]+0.029*[#  28]+0.020*[#   7]+0.020*[#  16]
          +0.020*[#  30]+0.013*[#   2]+0.013*[#   3]+0.013*[#   4]+0.008*[#   5]
          +0.008*[#  13]+0.008*[#  29]+0.006*[#   9]+0.006*[#  17]+0.006*[#  21]
          +0.006*[#  25]
    |psi|^2 = 0.743
==== e(   9) =     2.16416 eV ==== 
     psi = 0.065*[#   2]+0.065*[#   3]+0.065*[#   4]+0.039*[#   7]+0.039*[#  10]
          +0.039*[#  11]+0.039*[#  12]+0.039*[#  16]+0.039*[#  18]+0.039*[#  19]
          +0.039*[#  20]+0.039*[#  22]+0.039*[#  23]+0.039*[#  24]+0.039*[#  26]
          +0.039*[#  27]+0.039*[#  28]+0.039*[#  30]+0.027*[#   6]+0.027*[#   8]
          +0.027*[#  14]+0.027*[#  15]+0.027*[#  31]+0.027*[#  32]+0.012*[#   1]
          +0.006*[#   9]+0.006*[#  17]+0.006*[#  21]+0.006*[#  25]+0.004*[#   5]
          +0.004*[#  13]+0.004*[#  29]
    |psi|^2 = 0.994
==== e(  10) =     2.71462 eV ==== 
     psi = 0.045*[#   2]+0.045*[#   3]+0.045*[#   4]+0.036*[#   1]+0.036*[#   5]
          +0.036*[#   9]+0.036*[#  13]+0.036*[#  17]+0.036*[#  21]+0.036*[#  25]
          +0.036*[#  29]+0.033*[#   6]+0.033*[#   8]+0.033*[#  10]+0.033*[#  11]
          +0.033*[#  12]+0.033*[#  14]+0.033*[#  15]+0.033*[#  18]+0.033*[#  19]
          +0.033*[#  20]+0.033*[#  22]+0.033*[#  23]+0.033*[#  24]+0.033*[#  26]
          +0.033*[#  27]+0.033*[#  28]+0.033*[#  31]+0.033*[#  32]+0.020*[#   7]
          +0.020*[#  16]+0.020*[#  30]
    |psi|^2 = 1.070
==== e(  11) =     3.13966 eV ==== 
     psi = 0.034*[#   2]+0.034*[#   3]+0.034*[#   4]+0.034*[#   6]+0.034*[#   7]
          +0.034*[#   8]+0.034*[#  10]+0.034*[#  11]+0.034*[#  12]+0.034*[#  14]
          +0.034*[#  15]+0.034*[#  16]+0.034*[#  18]+0.034*[#  19]+0.034*[#  20]
          +0.034*[#  22]+0.034*[#  23]+0.034*[#  24]+0.034*[#  26]+0.034*[#  27]
          +0.034*[#  28]+0.034*[#  30]+0.034*[#  31]+0.034*[#  32]+0.009*[#   1]
          +0.009*[#   5]+0.009*[#   9]+0.009*[#  13]+0.009*[#  17]+0.009*[#  21]
          +0.009*[#  25]+0.009*[#  29]
    |psi|^2 = 0.896
==== e(  12) =     3.51483 eV ==== 
     psi = 0.060*[#   6]+0.060*[#   8]+0.060*[#  14]+0.060*[#  15]+0.060*[#  31]
          +0.060*[#  32]+0.041*[#  10]+0.041*[#  11]+0.041*[#  12]+0.041*[#  18]
          +0.041*[#  19]+0.041*[#  20]+0.041*[#  22]+0.041*[#  23]+0.041*[#  24]
          +0.041*[#  26]+0.041*[#  27]+0.041*[#  28]+0.024*[#   2]+0.024*[#   3]
          +0.024*[#   4]+0.020*[#   7]+0.020*[#  16]+0.020*[#  30]+0.001*[#   5]
          +0.001*[#  13]+0.001*[#  29]
    |psi|^2 = 0.985
==== e(  13) =     3.51499 eV ==== 
     psi = 0.064*[#   7]+0.064*[#  16]+0.064*[#  30]+0.056*[#   2]+0.056*[#   3]
          +0.056*[#   4]+0.041*[#  10]+0.041*[#  11]+0.041*[#  12]+0.041*[#  18]
          +0.041*[#  19]+0.041*[#  20]+0.041*[#  22]+0.041*[#  23]+0.041*[#  24]
          +0.041*[#  26]+0.041*[#  27]+0.041*[#  28]+0.022*[#   6]+0.022*[#   8]
          +0.022*[#  14]+0.022*[#  15]+0.022*[#  31]+0.022*[#  32]+0.002*[#   1]
          
    |psi|^2 = 0.992
==== e(  14) =     3.90225 eV ==== 
     psi = 0.059*[#   2]+0.059*[#   3]+0.059*[#   4]+0.040*[#   6]+0.040*[#   8]
          +0.040*[#  10]+0.040*[#  11]+0.040*[#  12]+0.040*[#  14]+0.040*[#  15]
          +0.040*[#  18]+0.040*[#  19]+0.040*[#  20]+0.040*[#  22]+0.040*[#  23]
          +0.040*[#  24]+0.040*[#  26]+0.040*[#  27]+0.040*[#  28]+0.040*[#  31]
          +0.040*[#  32]+0.021*[#   7]+0.021*[#  16]+0.021*[#  30]
    |psi|^2 = 0.952
==== e(  15) =     5.04912 eV ==== 
     psi = 0.041*[#   2]+0.041*[#   3]+0.041*[#   4]+0.041*[#   6]+0.041*[#   7]
          +0.041*[#   8]+0.041*[#  10]+0.041*[#  11]+0.041*[#  12]+0.041*[#  14]
          +0.041*[#  15]+0.041*[#  16]+0.041*[#  18]+0.041*[#  19]+0.041*[#  20]
          +0.041*[#  22]+0.041*[#  23]+0.041*[#  24]+0.041*[#  26]+0.041*[#  27]
          +0.041*[#  28]+0.041*[#  30]+0.041*[#  31]+0.041*[#  32]
    |psi|^2 = 0.988
==== e(  16) =     5.23066 eV ==== 
     psi = 0.030*[#   2]+0.030*[#   3]+0.030*[#   4]+0.030*[#   6]+0.030*[#   7]
          +0.030*[#   8]+0.030*[#  10]+0.030*[#  11]+0.030*[#  12]+0.030*[#  14]
          +0.030*[#  15]+0.030*[#  16]+0.030*[#  18]+0.030*[#  19]+0.030*[#  20]
          +0.030*[#  22]+0.030*[#  23]+0.030*[#  24]+0.030*[#  26]+0.030*[#  27]
          +0.030*[#  28]+0.030*[#  30]+0.030*[#  31]+0.030*[#  32]+0.010*[#   1]
          +0.010*[#   5]+0.010*[#   9]+0.010*[#  13]+0.010*[#  17]+0.010*[#  21]
          +0.010*[#  25]+0.010*[#  29]
    |psi|^2 = 0.807

 k =   0.8333333333  0.8333333333  0.8333333333
==== e(   1) =    -5.46675 eV ==== 
     psi = 0.107*[#   5]+0.107*[#   9]+0.107*[#  13]+0.107*[#  17]+0.107*[#  21]
          +0.107*[#  25]+0.107*[#  29]+0.107*[#   1]+0.006*[#   2]+0.006*[#   3]
          +0.006*[#   4]+0.006*[#   6]+0.006*[#   7]+0.006*[#   8]+0.006*[#  10]
          +0.006*[#  11]+0.006*[#  12]+0.006*[#  14]+0.006*[#  15]+0.006*[#  16]
          +0.006*[#  18]+0.006*[#  19]+0.006*[#  20]+0.006*[#  22]+0.006*[#  23]
          +0.006*[#  24]+0.006*[#  26]+0.006*[#  27]+0.006*[#  28]+0.006*[#  30]
          +0.006*[#  31]+0.006*[#  32]
    |psi|^2 = 0.993
==== e(   2) =    -2.74753 eV ==== 
     psi = 0.105*[#   5]+0.105*[#  13]+0.105*[#  29]+0.079*[#   9]+0.079*[#  17]
          +0.079*[#  21]+0.079*[#  25]+0.010*[#   6]+0.010*[#   8]+0.010*[#  14]
          +0.010*[#  15]+0.010*[#  31]+0.010*[#  32]+0.009*[#   2]+0.009*[#   3]
          +0.009*[#   4]+0.009*[#  10]+0.009*[#  11]+0.009*[#  12]+0.009*[#  18]
          +0.009*[#  19]+0.009*[#  20]+0.009*[#  22]+0.009*[#  23]+0.009*[#  24]
          +0.009*[#  26]+0.009*[#  27]+0.009*[#  28]+0.007*[#   7]+0.007*[#  16]
          +0.007*[#  30]
    |psi|^2 = 0.844
==== e(   3) =    -2.74753 eV ==== 
     psi = 0.105*[#   5]+0.105*[#  13]+0.105*[#  29]+0.079*[#   9]+0.079*[#  17]
          +0.079*[#  21]+0.079*[#  25]+0.025*[#   2]+0.025*[#   3]+0.025*[#   4]
          +0.021*[#   6]+0.021*[#   8]+0.021*[#  10]+0.021*[#  11]+0.021*[#  12]
          +0.021*[#  14]+0.021*[#  15]+0.021*[#  18]+0.021*[#  19]+0.021*[#  20]
          +0.021*[#  22]+0.021*[#  23]+0.021*[#  24]+0.021*[#  26]+0.021*[#  27]
          +0.021*[#  28]+0.021*[#  31]+0.021*[#  32]+0.017*[#   7]+0.017*[#  16]
          +0.017*[#  30]
    |psi|^2 = 1.140
==== e(   4) =    -2.74636 eV ==== 
     psi = 0.237*[#   1]+0.079*[#   9]+0.079*[#  17]+0.079*[#  21]+0.079*[#  25]
          +0.026*[#   5]+0.026*[#  13]+0.026*[#  29]+0.016*[#   7]+0.016*[#  16]
          +0.016*[#  30]+0.011*[#  10]+0.011*[#  11]+0.011*[#  12]+0.011*[#  18]
          +0.011*[#  19]+0.011*[#  20]+0.011*[#  22]+0.011*[#  23]+0.011*[#  24]
          +0.011*[#  26]+0.011*[#  27]+0.011*[#  28]+0.010*[#   6]+0.010*[#   8]
          +0.010*[#  14]+0.010*[#  15]+0.010*[#  31]+0.010*[#  32]+0.008*[#   2]
          +0.008*[#   3]+0.008*[#   4]
    |psi|^2 = 0.895
==== e(   5) =    -0.41244 eV ==== 
     psi = 0.090*[#   5]+0.090*[#  13]+0.090*[#  29]+0.068*[#   9]+0.068*[#  17]
          +0.068*[#  21]+0.068*[#  25]+0.022*[#   2]+0.022*[#   3]+0.022*[#   4]
          +0.021*[#   6]+0.021*[#   8]+0.021*[#  14]+0.021*[#  15]+0.021*[#  31]
          +0.021*[#  32]+0.019*[#  10]+0.019*[#  11]+0.019*[#  12]+0.019*[#  18]
          +0.019*[#  19]+0.019*[#  20]+0.019*[#  22]+0.019*[#  23]+0.019*[#  24]
          +0.019*[#  26]+0.019*[#  27]+0.019*[#  28]+0.012*[#   7]+0.012*[#  16]
          +0.012*[#  30]
    |psi|^2 = 0.993
==== e(   6) =    -0.41244 eV ==== 
     psi = 0.090*[#   5]+0.090*[#  13]+0.090*[#  29]+0.068*[#   9]+0.068*[#  17]
          +0.068*[#  21]+0.068*[#  25]+0.029*[#   2]+0.029*[#   3]+0.029*[#   4]
          +0.023*[#  10]+0.023*[#  11]+0.023*[#  12]+0.023*[#  18]+0.023*[#  19]
          +0.023*[#  20]+0.023*[#  22]+0.023*[#  23]+0.023*[#  24]+0.023*[#  26]
          +0.023*[#  27]+0.023*[#  28]+0.023*[#   6]+0.023*[#   8]+0.023*[#  14]
          +0.023*[#  15]+0.023*[#  31]+0.023*[#  32]+0.018*[#   7]+0.018*[#  16]
          +0.018*[#  30]
    |psi|^2 = 1.093
==== e(   7) =    -0.41176 eV ==== 
     psi = 0.204*[#   1]+0.068*[#   9]+0.068*[#  17]+0.068*[#  21]+0.068*[#  25]
          +0.024*[#   7]+0.024*[#  16]+0.024*[#  30]+0.023*[#   5]+0.023*[#  13]
          +0.023*[#  29]+0.017*[#  10]+0.017*[#  11]+0.017*[#  12]+0.017*[#  18]
          +0.017*[#  19]+0.017*[#  20]+0.017*[#  22]+0.017*[#  23]+0.017*[#  24]
          +0.017*[#  26]+0.017*[#  27]+0.017*[#  28]+0.015*[#   6]+0.015*[#   8]
          +0.015*[#  14]+0.015*[#  15]+0.015*[#  31]+0.015*[#  32]+0.012*[#   2]
          +0.012*[#   3]+0.012*[#   4]
    |psi|^2 = 0.946
==== e(   8) =     2.48448 eV ==== 
     psi = 0.049*[#   6]+0.049*[#   8]+0.049*[#  14]+0.049*[#  15]+0.049*[#  31]
          +0.049*[#  32]+0.032*[#  10]+0.032*[#  11]+0.032*[#  12]+0.032*[#  18]
          +0.032*[#  19]+0.032*[#  20]+0.032*[#  22]+0.032*[#  23]+0.032*[#  24]
          +0.032*[#  26]+0.032*[#  27]+0.032*[#  28]+0.020*[#   7]+0.020*[#  16]
          +0.020*[#  30]+0.013*[#   2]+0.013*[#   3]+0.013*[#   4]+0.004*[#   5]
          +0.004*[#  13]+0.004*[#  29]+0.003*[#   9]+0.003*[#  17]+0.003*[#  21]
          +0.003*[#  25]
    |psi|^2 = 0.803
==== e(   9) =     2.48448 eV ==== 
     psi = 0.056*[#   6]+0.056*[#   8]+0.056*[#  14]+0.056*[#  15]+0.056*[#  31]
          +0.056*[#  32]+0.040*[#  10]+0.040*[#  11]+0.040*[#  12]+0.040*[#  18]
          +0.040*[#  19]+0.040*[#  20]+0.040*[#  22]+0.040*[#  23]+0.040*[#  24]
          +0.040*[#  26]+0.040*[#  27]+0.040*[#  28]+0.029*[#   7]+0.029*[#  16]
          +0.029*[#  30]+0.020*[#   2]+0.020*[#   3]+0.020*[#   4]+0.004*[#   5]
          +0.004*[#  13]+0.004*[#  29]+0.003*[#   9]+0.003*[#  17]+0.003*[#  21]
          +0.003*[#  25]
    |psi|^2 = 0.993
==== e(  10) =     2.48501 eV ==== 
     psi = 0.067*[#   2]+0.067*[#   3]+0.067*[#   4]+0.048*[#   7]+0.048*[#  16]
          +0.048*[#  30]+0.038*[#  10]+0.038*[#  11]+0.038*[#  12]+0.038*[#  18]
          +0.038*[#  19]+0.038*[#  20]+0.038*[#  22]+0.038*[#  23]+0.038*[#  24]
          +0.038*[#  26]+0.038*[#  27]+0.038*[#  28]+0.018*[#   6]+0.018*[#   8]
          +0.018*[#  14]+0.018*[#  15]+0.018*[#  31]+0.018*[#  32]+0.009*[#   1]
          +0.003*[#   9]+0.003*[#  17]+0.003*[#  21]+0.003*[#  25]+0.001*[#   5]
          +0.001*[#  13]+0.001*[#  29]
    |psi|^2 = 0.936
==== e(  11) =     3.58915 eV ==== 
     psi = 0.058*[#   6]+0.058*[#   8]+0.058*[#  14]+0.058*[#  15]+0.058*[#  31]
          +0.058*[#  32]+0.041*[#  10]+0.041*[#  11]+0.041*[#  12]+0.041*[#  18]
          +0.041*[#  19]+0.041*[#  20]+0.041*[#  22]+0.041*[#  23]+0.041*[#  24]
          +0.041*[#  26]+0.041*[#  27]+0.041*[#  28]+0.027*[#   2]+0.027*[#   3]
          +0.027*[#   4]+0.021*[#   7]+0.021*[#  16]+0.021*[#  30]
    |psi|^2 = 0.985
==== e(  12) =     3.58971 eV ==== 
     psi = 0.083*[#   2]+0.083*[#   3]+0.083*[#   4]+0.059*[#   7]+0.059*[#  16]
          +0.059*[#  30]+0.046*[#  10]+0.046*[#  11]+0.046*[#  12]+0.046*[#  18]
          +0.046*[#  19]+0.046*[#  20]+0.046*[#  22]+0.046*[#  23]+0.046*[#  24]
          +0.046*[#  26]+0.046*[#  27]+0.046*[#  28]+0.021*[#   6]+0.021*[#   8]
          +0.021*[#  14]+0.021*[#  15]+0.021*[#  31]+0.021*[#  32]
    |psi|^2 = 1.101
==== e(  13) =     3.58971 eV ==== 
     psi = 0.062*[#   2]+0.062*[#   3]+0.062*[#   4]+0.062*[#   7]+0.062*[#  16]
          +0.062*[#  30]+0.041*[#  10]+0.041*[#  11]+0.041*[#  12]+0.041*[#  18]
          +0.041*[#  19]+0.041*[#  20]+0.041*[#  22]+0.041*[#  23]+0.041*[#  24]
          +0.041*[#  26]+0.041*[#  27]+0.041*[#  28]+0.021*[#   6]+0.021*[#   8]
          +0.021*[#  14]+0.021*[#  15]+0.021*[#  31]+0.021*[#  32]
    |psi|^2 = 0.994
==== e(  14) =     3.76658 eV ==== 
     psi = 0.041*[#   2]+0.041*[#   3]+0.041*[#   4]+0.034*[#   6]+0.034*[#   8]
          +0.034*[#  10]+0.034*[#  11]+0.034*[#  12]+0.034*[#  14]+0.034*[#  15]
          +0.034*[#  18]+0.034*[#  19]+0.034*[#  20]+0.034*[#  22]+0.034*[#  23]
          +0.034*[#  24]+0.034*[#  26]+0.034*[#  27]+0.034*[#  28]+0.034*[#  31]
          +0.034*[#  32]+0.028*[#   1]+0.028*[#   5]+0.028*[#   9]+0.028*[#  13]
          +0.028*[#  17]+0.028*[#  21]+0.028*[#  25]+0.028*[#  29]+0.028*[#   7]
          +0.028*[#  16]+0.028*[#  30]
    |psi|^2 = 1.053
==== e(  15) =     5.71627 eV ==== 
     psi = 0.036*[#   2]+0.036*[#   3]+0.036*[#   4]+0.036*[#   6]+0.036*[#   7]
          +0.036*[#   8]+0.036*[#  10]+0.036*[#  11]+0.036*[#  12]+0.036*[#  14]
          +0.036*[#  15]+0.036*[#  16]+0.036*[#  18]+0.036*[#  19]+0.036*[#  20]
          +0.036*[#  22]+0.036*[#  23]+0.036*[#  24]+0.036*[#  26]+0.036*[#  27]
          +0.036*[#  28]+0.036*[#  30]+0.036*[#  31]+0.036*[#  32]
    |psi|^2 = 0.855
==== e(  16) =     5.71627 eV ==== 
     psi = 0.040*[#   2]+0.040*[#   3]+0.040*[#   4]+0.039*[#   6]+0.039*[#   7]
          +0.039*[#   8]+0.040*[#  10]+0.040*[#  11]+0.040*[#  12]+0.039*[#  14]
          +0.039*[#  15]+0.039*[#  16]+0.040*[#  18]+0.040*[#  19]+0.040*[#  20]
          +0.040*[#  22]+0.040*[#  23]+0.040*[#  24]+0.040*[#  26]+0.040*[#  27]
          +0.040*[#  28]+0.039*[#  30]+0.039*[#  31]+0.039*[#  32]
    |psi|^2 = 0.948

Lowdin Charges: 

     Atom #   1: total charge =   3.9064, s =  1.1923, 
     Atom #   1: total charge =   3.9064, p =  2.7141, pz=  0.9047, px=  0.9047, py=  0.9047, 
     Atom #   2: total charge =   3.9056, s =  1.1925, 
     Atom #   2: total charge =   3.9056, p =  2.7131, pz=  0.9020, px=  0.9090, py=  0.9020, 
     Atom #   3: total charge =   3.9201, s =  1.1927, 
     Atom #   3: total charge =   3.9201, p =  2.7275, pz=  0.9092, px=  0.9092, py=  0.9092, 
     Atom #   4: total charge =   3.9056, s =  1.1925, 
     Atom #   4: total charge =   3.9056, p =  2.7131, pz=  0.9020, px=  0.9020, py=  0.9090, 
     Atom #   5: total charge =   3.9201, s =  1.1927, 
     Atom #   5: total charge =   3.9201, p =  2.7275, pz=  0.9092, px=  0.9092, py=  0.9092, 
     Atom #   6: total charge =   3.9201, s =  1.1927, 
     Atom #   6: total charge =   3.9201, p =  2.7275, pz=  0.9092, px=  0.9092, py=  0.9092, 
     Atom #   7: total charge =   3.9201, s =  1.1927, 
     Atom #   7: total charge =   3.9201, p =  2.7275, pz=  0.9092, px=  0.9092, py=  0.9092, 
     Atom #   8: total charge =   3.9056, s =  1.1925, 
     Atom #   8: total charge =   3.9056, p =  2.7131, pz=  0.9090, px=  0.9020, py=  0.9020, 
     Spilling Parameter:   0.0218

     PROJWFC      :      0.91s CPU      1.05s WALL


   This run was terminated on:  17:32: 5  16Jun2021            

=------------------------------------------------------------------------------=
   JOB DONE.
=------------------------------------------------------------------------------=
