
     Program PWSCF v.6.0 (svn rev. 13079) starts on 13Jan2017 at 10:30: 9 

     This program is part of the open-source Quantum ESPRESSO suite
     for quantum simulation of materials; please cite
         "P. Giannozzi et al., J. Phys.:Condens. Matter 21 395502 (2009);
          URL http://www.quantum-espresso.org", 
     in publications or presentations arising from this work. More details at
     http://www.quantum-espresso.org/quote

     Parallel version (MPI), running on    24 processors
     R & G space division:  proc/nbgrp/npool/nimage =      24
     Waiting for input...
     Reading input from standard input
Warning: card &IONS ignored
Warning: card     ION_DYNAMICS='BFGS', ignored
Warning: card / ignored
Warning: card &CELL ignored
Warning: card     CELL_DYNAMICS = 'BFGS' ignored
Warning: card     PRESS = 0 ignored
Warning: card / ignored

     Current dimensions of program PWSCF are:
     Max number of different atomic species (ntypx) = 10
     Max number of k-points (npk) =  40000
     Max angular momentum in pseudopotentials (lmaxx) =  3

     Atomic positions and unit cell read from directory:
     ./pwo.save/

               file Ge.rel-pbesol-dn-kjpaw_psl.0.2.2.UPF: wavefunction(s)  4P 4P 3D renormalized
               file Te.rel-pbesol-dn-kjpaw_psl.0.2.2.UPF: wavefunction(s)  5S 5P 4D 4D renormalized

     Subspace diagonalization in iterative solution of the eigenvalue problem:
     one sub-group per band group will be used
     scalapack distributed-memory algorithm (size of sub-group:  3*  3 procs)


     Parallelization info
     --------------------
     sticks:   dense  smooth     PW     G-vecs:    dense   smooth      PW
     Min          46      20      6                 1004      297      57
     Max          47      21      7                 1007      301      62
     Sum        1109     499    163                24123     7181    1447



     bravais-lattice index     =            0
     lattice parameter (alat)  =       8.0899  a.u.
     unit-cell volume          =     360.3090 (a.u.)^3
     number of atoms/cell      =            2
     number of atomic types    =            2
     number of electrons       =        30.00
     number of Kohn-Sham states=           48
     kinetic-energy cutoff     =      28.0000  Ry
     charge density cutoff     =     250.0000  Ry
     Exchange-correlation      =  SLA  PW   PSX  PSC ( 1  4 10  8 0 0)
     Non magnetic calculation with spin-orbit


     celldm(1)=   8.089908  celldm(2)=   0.000000  celldm(3)=   0.000000
     celldm(4)=   0.000000  celldm(5)=   0.000000  celldm(6)=   0.000000

     crystal axes: (cart. coord. in units of alat)
               a(1) = (  -0.826483   0.000000   0.562962 )  
               a(2) = (  -0.826483   0.487540  -0.281481 )  
               a(3) = (  -0.826483  -0.487540  -0.281481 )  

     reciprocal axes: (cart. coord. in units 2 pi/alat)
               b(1) = ( -0.403316  0.000000  1.184212 )  
               b(2) = ( -0.403316  1.025558 -0.592106 )  
               b(3) = ( -0.403316 -1.025558 -0.592106 )  


     PseudoPot. # 1 for Ge read from file:
     ./Ge.rel-pbesol-dn-kjpaw_psl.0.2.2.UPF
     MD5 check sum: 8befc74f4e76b3bdedbeeed072d6d0b3
     Pseudo is Projector augmented-wave + core cor, Zval = 14.0
     Generated using "atomic" code by A. Dal Corso  v.5.0.2 svn rev. 9415
     Shape of augmentation charge: PSQ
     Using radial grid of 1207 points, 10 beta functions with: 
                l(1) =   0
                l(2) =   0
                l(3) =   1
                l(4) =   1
                l(5) =   1
                l(6) =   1
                l(7) =   2
                l(8) =   2
                l(9) =   2
               l(10) =   2
     Q(r) pseudized with 0 coefficients 


     PseudoPot. # 2 for Te read from file:
     ./Te.rel-pbesol-dn-kjpaw_psl.0.2.2.UPF
     MD5 check sum: 044fef1d4fb1505d1391827d062c76ed
     Pseudo is Projector augmented-wave + core cor, Zval = 16.0
     Generated using "atomic" code by A. Dal Corso  v.5.0.2 svn rev. 9415
     Shape of augmentation charge: PSQ
     Using radial grid of 1245 points, 10 beta functions with: 
                l(1) =   0
                l(2) =   0
                l(3) =   1
                l(4) =   1
                l(5) =   1
                l(6) =   1
                l(7) =   2
                l(8) =   2
                l(9) =   2
               l(10) =   2
     Q(r) pseudized with 0 coefficients 


     atomic species   valence    mass     pseudopotential
        Ge            14.00    50.00000     Ge( 1.00)
        Te            16.00    50.00000     Te( 1.00)

     No symmetry found


                                    s                        frac. trans.

      isym =  1     identity                                     

 cryst.   s( 1) = (     1          0          0      )
                  (     0          1          0      )
                  (     0          0          1      )

 cart.    s( 1) = (  1.0000000  0.0000000  0.0000000 )
                  (  0.0000000  1.0000000  0.0000000 )
                  (  0.0000000  0.0000000  1.0000000 )


   Cartesian axes

     site n.     atom                  positions (alat units)
         1           Te  tau(   1) = (  -1.2973781   0.0000000  -0.0000000  )
         2           Ge  tau(   2) = (   0.0055858   0.0000000   0.0000000  )

   Crystallographic axes

     site n.     atom                  positions (cryst. coord.)
         1           Te  tau(   1) = (  0.5232529  0.5232529  0.5232529  )
         2           Ge  tau(   2) = ( -0.0022529 -0.0022529 -0.0022529  )

     number of k points=   201  Marzari-Vanderbilt smearing, width (Ry)=  0.0100
                       cart. coord. in units 2pi/alat
        k(    1) = (  -0.6049734   1.0255575   0.0000000), wk =   0.0049751
        k(    2) = (  -0.6049734   1.0153020  -0.0000000), wk =   0.0049751
        k(    3) = (  -0.6049734   1.0050464  -0.0000000), wk =   0.0049751
        k(    4) = (  -0.6049734   0.9947908   0.0000000), wk =   0.0049751
        k(    5) = (  -0.6049734   0.9845352   0.0000000), wk =   0.0049751
        k(    6) = (  -0.6049734   0.9742797   0.0000000), wk =   0.0049751
        k(    7) = (  -0.6049734   0.9640241   0.0000000), wk =   0.0049751
        k(    8) = (  -0.6049734   0.9537685  -0.0000000), wk =   0.0049751
        k(    9) = (  -0.6049734   0.9435129  -0.0000000), wk =   0.0049751
        k(   10) = (  -0.6049734   0.9332574   0.0000000), wk =   0.0049751
        k(   11) = (  -0.6049734   0.9230018   0.0000000), wk =   0.0049751
        k(   12) = (  -0.6049734   0.9127462   0.0000000), wk =   0.0049751
        k(   13) = (  -0.6049734   0.9024906   0.0000000), wk =   0.0049751
        k(   14) = (  -0.6049734   0.8922351   0.0000000), wk =   0.0049751
        k(   15) = (  -0.6049734   0.8819795   0.0000000), wk =   0.0049751
        k(   16) = (  -0.6049734   0.8717239  -0.0000000), wk =   0.0049751
        k(   17) = (  -0.6049734   0.8614683  -0.0000000), wk =   0.0049751
        k(   18) = (  -0.6049734   0.8512128  -0.0000000), wk =   0.0049751
        k(   19) = (  -0.6049734   0.8409572   0.0000000), wk =   0.0049751
        k(   20) = (  -0.6049734   0.8307016   0.0000000), wk =   0.0049751
        k(   21) = (  -0.6049734   0.8204460  -0.0000000), wk =   0.0049751
        k(   22) = (  -0.6049734   0.8101905  -0.0000000), wk =   0.0049751
        k(   23) = (  -0.6049734   0.7999349  -0.0000000), wk =   0.0049751
        k(   24) = (  -0.6049734   0.7896793   0.0000000), wk =   0.0049751
        k(   25) = (  -0.6049734   0.7794237   0.0000000), wk =   0.0049751
        k(   26) = (  -0.6049734   0.7691682   0.0000000), wk =   0.0049751
        k(   27) = (  -0.6049734   0.7589126   0.0000000), wk =   0.0049751
        k(   28) = (  -0.6049734   0.7486570  -0.0000000), wk =   0.0049751
        k(   29) = (  -0.6049734   0.7384014  -0.0000000), wk =   0.0049751
        k(   30) = (  -0.6049734   0.7281459   0.0000000), wk =   0.0049751
        k(   31) = (  -0.6049734   0.7178903   0.0000000), wk =   0.0049751
        k(   32) = (  -0.6049734   0.7076347   0.0000000), wk =   0.0049751
        k(   33) = (  -0.6049734   0.6973791   0.0000000), wk =   0.0049751
        k(   34) = (  -0.6049734   0.6871236   0.0000000), wk =   0.0049751
        k(   35) = (  -0.6049734   0.6768680   0.0000000), wk =   0.0049751
        k(   36) = (  -0.6049734   0.6666124   0.0000000), wk =   0.0049751
        k(   37) = (  -0.6049734   0.6563568  -0.0000000), wk =   0.0049751
        k(   38) = (  -0.6049734   0.6461013   0.0000000), wk =   0.0049751
        k(   39) = (  -0.6049734   0.6358457  -0.0000000), wk =   0.0049751
        k(   40) = (  -0.6049734   0.6255901   0.0000000), wk =   0.0049751
        k(   41) = (  -0.6049734   0.6153345  -0.0000000), wk =   0.0049751
        k(   42) = (  -0.6049734   0.6050789   0.0000000), wk =   0.0049751
        k(   43) = (  -0.6049734   0.5948234   0.0000000), wk =   0.0049751
        k(   44) = (  -0.6049734   0.5845678  -0.0000000), wk =   0.0049751
        k(   45) = (  -0.6049734   0.5743122  -0.0000000), wk =   0.0049751
        k(   46) = (  -0.6049734   0.5640566   0.0000000), wk =   0.0049751
        k(   47) = (  -0.6049734   0.5538011  -0.0000000), wk =   0.0049751
        k(   48) = (  -0.6049734   0.5435455  -0.0000000), wk =   0.0049751
        k(   49) = (  -0.6049734   0.5332899   0.0000000), wk =   0.0049751
        k(   50) = (  -0.6049734   0.5230343   0.0000000), wk =   0.0049751
        k(   51) = (  -0.6049734   0.5127788   0.0000000), wk =   0.0049751
        k(   52) = (  -0.6049734   0.5025232   0.0000000), wk =   0.0049751
        k(   53) = (  -0.6049734   0.4922676   0.0000000), wk =   0.0049751
        k(   54) = (  -0.6049734   0.4820120   0.0000000), wk =   0.0049751
        k(   55) = (  -0.6049734   0.4717565   0.0000000), wk =   0.0049751
        k(   56) = (  -0.6049734   0.4615009  -0.0000000), wk =   0.0049751
        k(   57) = (  -0.6049734   0.4512453   0.0000000), wk =   0.0049751
        k(   58) = (  -0.6049734   0.4409897   0.0000000), wk =   0.0049751
        k(   59) = (  -0.6049734   0.4307342   0.0000000), wk =   0.0049751
        k(   60) = (  -0.6049734   0.4204786   0.0000000), wk =   0.0049751
        k(   61) = (  -0.6049734   0.4102230   0.0000000), wk =   0.0049751
        k(   62) = (  -0.6049734   0.3999674  -0.0000000), wk =   0.0049751
        k(   63) = (  -0.6049734   0.3897119   0.0000000), wk =   0.0049751
        k(   64) = (  -0.6049734   0.3794563  -0.0000000), wk =   0.0049751
        k(   65) = (  -0.6049734   0.3692007   0.0000000), wk =   0.0049751
        k(   66) = (  -0.6049734   0.3589451  -0.0000000), wk =   0.0049751
        k(   67) = (  -0.6049734   0.3486896   0.0000000), wk =   0.0049751
        k(   68) = (  -0.6049734   0.3384340  -0.0000000), wk =   0.0049751
        k(   69) = (  -0.6049734   0.3281784   0.0000000), wk =   0.0049751
        k(   70) = (  -0.6049734   0.3179228  -0.0000000), wk =   0.0049751
        k(   71) = (  -0.6049734   0.3076673   0.0000000), wk =   0.0049751
        k(   72) = (  -0.6049734   0.2974117   0.0000000), wk =   0.0049751
        k(   73) = (  -0.6049734   0.2871561   0.0000000), wk =   0.0049751
        k(   74) = (  -0.6049734   0.2769005   0.0000000), wk =   0.0049751
        k(   75) = (  -0.6049734   0.2666450   0.0000000), wk =   0.0049751
        k(   76) = (  -0.6049734   0.2563894   0.0000000), wk =   0.0049751
        k(   77) = (  -0.6049734   0.2461338   0.0000000), wk =   0.0049751
        k(   78) = (  -0.6049734   0.2358782   0.0000000), wk =   0.0049751
        k(   79) = (  -0.6049734   0.2256227  -0.0000000), wk =   0.0049751
        k(   80) = (  -0.6049734   0.2153671   0.0000000), wk =   0.0049751
        k(   81) = (  -0.6049734   0.2051115   0.0000000), wk =   0.0049751
        k(   82) = (  -0.6049734   0.1948559  -0.0000000), wk =   0.0049751
        k(   83) = (  -0.6049734   0.1846004   0.0000000), wk =   0.0049751
        k(   84) = (  -0.6049734   0.1743448   0.0000000), wk =   0.0049751
        k(   85) = (  -0.6049734   0.1640892  -0.0000000), wk =   0.0049751
        k(   86) = (  -0.6049734   0.1538336   0.0000000), wk =   0.0049751
        k(   87) = (  -0.6049734   0.1435781  -0.0000000), wk =   0.0049751
        k(   88) = (  -0.6049734   0.1333225   0.0000000), wk =   0.0049751
        k(   89) = (  -0.6049734   0.1230669   0.0000000), wk =   0.0049751
        k(   90) = (  -0.6049734   0.1128113   0.0000000), wk =   0.0049751
        k(   91) = (  -0.6049734   0.1025558  -0.0000000), wk =   0.0049751
        k(   92) = (  -0.6049734   0.0923002   0.0000000), wk =   0.0049751
        k(   93) = (  -0.6049734   0.0820446  -0.0000000), wk =   0.0049751
        k(   94) = (  -0.6049734   0.0717890   0.0000000), wk =   0.0049751
        k(   95) = (  -0.6049734   0.0615335   0.0000000), wk =   0.0049751
        k(   96) = (  -0.6049734   0.0512779   0.0000000), wk =   0.0049751
        k(   97) = (  -0.6049734   0.0410223   0.0000000), wk =   0.0049751
        k(   98) = (  -0.6049734   0.0307667   0.0000000), wk =   0.0049751
        k(   99) = (  -0.6049734   0.0205112   0.0000000), wk =   0.0049751
        k(  100) = (  -0.6049734   0.0102556   0.0000000), wk =   0.0049751
        k(  101) = (  -0.6049734   0.0000000   0.0000000), wk =   0.0049751
        k(  102) = (  -0.6049734   0.0076917  -0.0044408), wk =   0.0049751
        k(  103) = (  -0.6049734   0.0153834  -0.0088816), wk =   0.0049751
        k(  104) = (  -0.6049734   0.0230750  -0.0133224), wk =   0.0049751
        k(  105) = (  -0.6049734   0.0307667  -0.0177632), wk =   0.0049751
        k(  106) = (  -0.6049734   0.0384584  -0.0222040), wk =   0.0049751
        k(  107) = (  -0.6049734   0.0461501  -0.0266448), wk =   0.0049751
        k(  108) = (  -0.6049734   0.0538418  -0.0310856), wk =   0.0049751
        k(  109) = (  -0.6049734   0.0615335  -0.0355264), wk =   0.0049751
        k(  110) = (  -0.6049734   0.0692251  -0.0399671), wk =   0.0049751
        k(  111) = (  -0.6049734   0.0769168  -0.0444079), wk =   0.0049751
        k(  112) = (  -0.6049734   0.0846085  -0.0488487), wk =   0.0049751
        k(  113) = (  -0.6049734   0.0923002  -0.0532895), wk =   0.0049751
        k(  114) = (  -0.6049734   0.0999919  -0.0577303), wk =   0.0049751
        k(  115) = (  -0.6049734   0.1076835  -0.0621711), wk =   0.0049751
        k(  116) = (  -0.6049734   0.1153752  -0.0666119), wk =   0.0049751
        k(  117) = (  -0.6049734   0.1230669  -0.0710527), wk =   0.0049751
        k(  118) = (  -0.6049734   0.1307586  -0.0754935), wk =   0.0049751
        k(  119) = (  -0.6049734   0.1384503  -0.0799343), wk =   0.0049751
        k(  120) = (  -0.6049734   0.1461419  -0.0843751), wk =   0.0049751
        k(  121) = (  -0.6049734   0.1538336  -0.0888159), wk =   0.0049751
        k(  122) = (  -0.6049734   0.1615253  -0.0932567), wk =   0.0049751
        k(  123) = (  -0.6049734   0.1692170  -0.0976975), wk =   0.0049751
        k(  124) = (  -0.6049734   0.1769087  -0.1021383), wk =   0.0049751
        k(  125) = (  -0.6049734   0.1846004  -0.1065791), wk =   0.0049751
        k(  126) = (  -0.6049734   0.1922920  -0.1110199), wk =   0.0049751
        k(  127) = (  -0.6049734   0.1999837  -0.1154607), wk =   0.0049751
        k(  128) = (  -0.6049734   0.2076754  -0.1199014), wk =   0.0049751
        k(  129) = (  -0.6049734   0.2153671  -0.1243422), wk =   0.0049751
        k(  130) = (  -0.6049734   0.2230588  -0.1287830), wk =   0.0049751
        k(  131) = (  -0.6049734   0.2307504  -0.1332238), wk =   0.0049751
        k(  132) = (  -0.6049734   0.2384421  -0.1376646), wk =   0.0049751
        k(  133) = (  -0.6049734   0.2461338  -0.1421054), wk =   0.0049751
        k(  134) = (  -0.6049734   0.2538255  -0.1465462), wk =   0.0049751
        k(  135) = (  -0.6049734   0.2615172  -0.1509870), wk =   0.0049751
        k(  136) = (  -0.6049734   0.2692089  -0.1554278), wk =   0.0049751
        k(  137) = (  -0.6049734   0.2769005  -0.1598686), wk =   0.0049751
        k(  138) = (  -0.6049734   0.2845922  -0.1643094), wk =   0.0049751
        k(  139) = (  -0.6049734   0.2922839  -0.1687502), wk =   0.0049751
        k(  140) = (  -0.6049734   0.2999756  -0.1731910), wk =   0.0049751
        k(  141) = (  -0.6049734   0.3076673  -0.1776318), wk =   0.0049751
        k(  142) = (  -0.6049734   0.3153589  -0.1820726), wk =   0.0049751
        k(  143) = (  -0.6049734   0.3230506  -0.1865134), wk =   0.0049751
        k(  144) = (  -0.6049734   0.3307423  -0.1909542), wk =   0.0049751
        k(  145) = (  -0.6049734   0.3384340  -0.1953950), wk =   0.0049751
        k(  146) = (  -0.6049734   0.3461257  -0.1998357), wk =   0.0049751
        k(  147) = (  -0.6049734   0.3538174  -0.2042765), wk =   0.0049751
        k(  148) = (  -0.6049734   0.3615090  -0.2087173), wk =   0.0049751
        k(  149) = (  -0.6049734   0.3692007  -0.2131581), wk =   0.0049751
        k(  150) = (  -0.6049734   0.3768924  -0.2175989), wk =   0.0049751
        k(  151) = (  -0.6049734   0.3845841  -0.2220397), wk =   0.0049751
        k(  152) = (  -0.6049734   0.3922758  -0.2264805), wk =   0.0049751
        k(  153) = (  -0.6049734   0.3999674  -0.2309213), wk =   0.0049751
        k(  154) = (  -0.6049734   0.4076591  -0.2353621), wk =   0.0049751
        k(  155) = (  -0.6049734   0.4153508  -0.2398029), wk =   0.0049751
        k(  156) = (  -0.6049734   0.4230425  -0.2442437), wk =   0.0049751
        k(  157) = (  -0.6049734   0.4307342  -0.2486845), wk =   0.0049751
        k(  158) = (  -0.6049734   0.4384258  -0.2531253), wk =   0.0049751
        k(  159) = (  -0.6049734   0.4461175  -0.2575661), wk =   0.0049751
        k(  160) = (  -0.6049734   0.4538092  -0.2620069), wk =   0.0049751
        k(  161) = (  -0.6049734   0.4615009  -0.2664477), wk =   0.0049751
        k(  162) = (  -0.6049734   0.4691926  -0.2708885), wk =   0.0049751
        k(  163) = (  -0.6049734   0.4768843  -0.2753293), wk =   0.0049751
        k(  164) = (  -0.6049734   0.4845759  -0.2797700), wk =   0.0049751
        k(  165) = (  -0.6049734   0.4922676  -0.2842108), wk =   0.0049751
        k(  166) = (  -0.6049734   0.4999593  -0.2886516), wk =   0.0049751
        k(  167) = (  -0.6049734   0.5076510  -0.2930924), wk =   0.0049751
        k(  168) = (  -0.6049734   0.5153427  -0.2975332), wk =   0.0049751
        k(  169) = (  -0.6049734   0.5230343  -0.3019740), wk =   0.0049751
        k(  170) = (  -0.6049734   0.5307260  -0.3064148), wk =   0.0049751
        k(  171) = (  -0.6049734   0.5384177  -0.3108556), wk =   0.0049751
        k(  172) = (  -0.6049734   0.5461094  -0.3152964), wk =   0.0049751
        k(  173) = (  -0.6049734   0.5538011  -0.3197372), wk =   0.0049751
        k(  174) = (  -0.6049734   0.5614928  -0.3241780), wk =   0.0049751
        k(  175) = (  -0.6049734   0.5691844  -0.3286188), wk =   0.0049751
        k(  176) = (  -0.6049734   0.5768761  -0.3330596), wk =   0.0049751
        k(  177) = (  -0.6049734   0.5845678  -0.3375004), wk =   0.0049751
        k(  178) = (  -0.6049734   0.5922595  -0.3419412), wk =   0.0049751
        k(  179) = (  -0.6049734   0.5999512  -0.3463820), wk =   0.0049751
        k(  180) = (  -0.6049734   0.6076428  -0.3508228), wk =   0.0049751
        k(  181) = (  -0.6049734   0.6153345  -0.3552636), wk =   0.0049751
        k(  182) = (  -0.6049734   0.6230262  -0.3597043), wk =   0.0049751
        k(  183) = (  -0.6049734   0.6307179  -0.3641451), wk =   0.0049751
        k(  184) = (  -0.6049734   0.6384096  -0.3685859), wk =   0.0049751
        k(  185) = (  -0.6049734   0.6461013  -0.3730267), wk =   0.0049751
        k(  186) = (  -0.6049734   0.6537929  -0.3774675), wk =   0.0049751
        k(  187) = (  -0.6049734   0.6614846  -0.3819083), wk =   0.0049751
        k(  188) = (  -0.6049734   0.6691763  -0.3863491), wk =   0.0049751
        k(  189) = (  -0.6049734   0.6768680  -0.3907899), wk =   0.0049751
        k(  190) = (  -0.6049734   0.6845597  -0.3952307), wk =   0.0049751
        k(  191) = (  -0.6049734   0.6922513  -0.3996715), wk =   0.0049751
        k(  192) = (  -0.6049734   0.6999430  -0.4041123), wk =   0.0049751
        k(  193) = (  -0.6049734   0.7076347  -0.4085531), wk =   0.0049751
        k(  194) = (  -0.6049734   0.7153264  -0.4129939), wk =   0.0049751
        k(  195) = (  -0.6049734   0.7230181  -0.4174347), wk =   0.0049751
        k(  196) = (  -0.6049734   0.7307097  -0.4218755), wk =   0.0049751
        k(  197) = (  -0.6049734   0.7384014  -0.4263163), wk =   0.0049751
        k(  198) = (  -0.6049734   0.7460931  -0.4307571), wk =   0.0049751
        k(  199) = (  -0.6049734   0.7537848  -0.4351979), wk =   0.0049751
        k(  200) = (  -0.6049734   0.7614765  -0.4396386), wk =   0.0049751
        k(  201) = (  -0.6049734   0.7691682  -0.4440794), wk =   0.0049751

                       cryst. coord.
        k(    1) = (   0.5000000   1.0000000   0.0000000), wk =   0.0049751
        k(    2) = (   0.5000000   0.9950000   0.0050000), wk =   0.0049751
        k(    3) = (   0.5000000   0.9900000   0.0100000), wk =   0.0049751
        k(    4) = (   0.5000000   0.9850000   0.0150000), wk =   0.0049751
        k(    5) = (   0.5000000   0.9800000   0.0200000), wk =   0.0049751
        k(    6) = (   0.5000000   0.9750000   0.0250000), wk =   0.0049751
        k(    7) = (   0.5000000   0.9700000   0.0300000), wk =   0.0049751
        k(    8) = (   0.5000000   0.9650000   0.0350000), wk =   0.0049751
        k(    9) = (   0.5000000   0.9600000   0.0400000), wk =   0.0049751
        k(   10) = (   0.5000000   0.9550000   0.0450000), wk =   0.0049751
        k(   11) = (   0.5000000   0.9500000   0.0500000), wk =   0.0049751
        k(   12) = (   0.5000000   0.9450000   0.0550000), wk =   0.0049751
        k(   13) = (   0.5000000   0.9400000   0.0600000), wk =   0.0049751
        k(   14) = (   0.5000000   0.9350000   0.0650000), wk =   0.0049751
        k(   15) = (   0.5000000   0.9300000   0.0700000), wk =   0.0049751
        k(   16) = (   0.5000000   0.9250000   0.0750000), wk =   0.0049751
        k(   17) = (   0.5000000   0.9200000   0.0800000), wk =   0.0049751
        k(   18) = (   0.5000000   0.9150000   0.0850000), wk =   0.0049751
        k(   19) = (   0.5000000   0.9100000   0.0900000), wk =   0.0049751
        k(   20) = (   0.5000000   0.9050000   0.0950000), wk =   0.0049751
        k(   21) = (   0.5000000   0.9000000   0.1000000), wk =   0.0049751
        k(   22) = (   0.5000000   0.8950000   0.1050000), wk =   0.0049751
        k(   23) = (   0.5000000   0.8900000   0.1100000), wk =   0.0049751
        k(   24) = (   0.5000000   0.8850000   0.1150000), wk =   0.0049751
        k(   25) = (   0.5000000   0.8800000   0.1200000), wk =   0.0049751
        k(   26) = (   0.5000000   0.8750000   0.1250000), wk =   0.0049751
        k(   27) = (   0.5000000   0.8700000   0.1300000), wk =   0.0049751
        k(   28) = (   0.5000000   0.8650000   0.1350000), wk =   0.0049751
        k(   29) = (   0.5000000   0.8600000   0.1400000), wk =   0.0049751
        k(   30) = (   0.5000000   0.8550000   0.1450000), wk =   0.0049751
        k(   31) = (   0.5000000   0.8500000   0.1500000), wk =   0.0049751
        k(   32) = (   0.5000000   0.8450000   0.1550000), wk =   0.0049751
        k(   33) = (   0.5000000   0.8400000   0.1600000), wk =   0.0049751
        k(   34) = (   0.5000000   0.8350000   0.1650000), wk =   0.0049751
        k(   35) = (   0.5000000   0.8300000   0.1700000), wk =   0.0049751
        k(   36) = (   0.5000000   0.8250000   0.1750000), wk =   0.0049751
        k(   37) = (   0.5000000   0.8200000   0.1800000), wk =   0.0049751
        k(   38) = (   0.5000000   0.8150000   0.1850000), wk =   0.0049751
        k(   39) = (   0.5000000   0.8100000   0.1900000), wk =   0.0049751
        k(   40) = (   0.5000000   0.8050000   0.1950000), wk =   0.0049751
        k(   41) = (   0.5000000   0.8000000   0.2000000), wk =   0.0049751
        k(   42) = (   0.5000000   0.7950000   0.2050000), wk =   0.0049751
        k(   43) = (   0.5000000   0.7900000   0.2100000), wk =   0.0049751
        k(   44) = (   0.5000000   0.7850000   0.2150000), wk =   0.0049751
        k(   45) = (   0.5000000   0.7800000   0.2200000), wk =   0.0049751
        k(   46) = (   0.5000000   0.7750000   0.2250000), wk =   0.0049751
        k(   47) = (   0.5000000   0.7700000   0.2300000), wk =   0.0049751
        k(   48) = (   0.5000000   0.7650000   0.2350000), wk =   0.0049751
        k(   49) = (   0.5000000   0.7600000   0.2400000), wk =   0.0049751
        k(   50) = (   0.5000000   0.7550000   0.2450000), wk =   0.0049751
        k(   51) = (   0.5000000   0.7500000   0.2500000), wk =   0.0049751
        k(   52) = (   0.5000000   0.7450000   0.2550000), wk =   0.0049751
        k(   53) = (   0.5000000   0.7400000   0.2600000), wk =   0.0049751
        k(   54) = (   0.5000000   0.7350000   0.2650000), wk =   0.0049751
        k(   55) = (   0.5000000   0.7300000   0.2700000), wk =   0.0049751
        k(   56) = (   0.5000000   0.7250000   0.2750000), wk =   0.0049751
        k(   57) = (   0.5000000   0.7200000   0.2800000), wk =   0.0049751
        k(   58) = (   0.5000000   0.7150000   0.2850000), wk =   0.0049751
        k(   59) = (   0.5000000   0.7100000   0.2900000), wk =   0.0049751
        k(   60) = (   0.5000000   0.7050000   0.2950000), wk =   0.0049751
        k(   61) = (   0.5000000   0.7000000   0.3000000), wk =   0.0049751
        k(   62) = (   0.5000000   0.6950000   0.3050000), wk =   0.0049751
        k(   63) = (   0.5000000   0.6900000   0.3100000), wk =   0.0049751
        k(   64) = (   0.5000000   0.6850000   0.3150000), wk =   0.0049751
        k(   65) = (   0.5000000   0.6800000   0.3200000), wk =   0.0049751
        k(   66) = (   0.5000000   0.6750000   0.3250000), wk =   0.0049751
        k(   67) = (   0.5000000   0.6700000   0.3300000), wk =   0.0049751
        k(   68) = (   0.5000000   0.6650000   0.3350000), wk =   0.0049751
        k(   69) = (   0.5000000   0.6600000   0.3400000), wk =   0.0049751
        k(   70) = (   0.5000000   0.6550000   0.3450000), wk =   0.0049751
        k(   71) = (   0.5000000   0.6500000   0.3500000), wk =   0.0049751
        k(   72) = (   0.5000000   0.6450000   0.3550000), wk =   0.0049751
        k(   73) = (   0.5000000   0.6400000   0.3600000), wk =   0.0049751
        k(   74) = (   0.5000000   0.6350000   0.3650000), wk =   0.0049751
        k(   75) = (   0.5000000   0.6300000   0.3700000), wk =   0.0049751
        k(   76) = (   0.5000000   0.6250000   0.3750000), wk =   0.0049751
        k(   77) = (   0.5000000   0.6200000   0.3800000), wk =   0.0049751
        k(   78) = (   0.5000000   0.6150000   0.3850000), wk =   0.0049751
        k(   79) = (   0.5000000   0.6100000   0.3900000), wk =   0.0049751
        k(   80) = (   0.5000000   0.6050000   0.3950000), wk =   0.0049751
        k(   81) = (   0.5000000   0.6000000   0.4000000), wk =   0.0049751
        k(   82) = (   0.5000000   0.5950000   0.4050000), wk =   0.0049751
        k(   83) = (   0.5000000   0.5900000   0.4100000), wk =   0.0049751
        k(   84) = (   0.5000000   0.5850000   0.4150000), wk =   0.0049751
        k(   85) = (   0.5000000   0.5800000   0.4200000), wk =   0.0049751
        k(   86) = (   0.5000000   0.5750000   0.4250000), wk =   0.0049751
        k(   87) = (   0.5000000   0.5700000   0.4300000), wk =   0.0049751
        k(   88) = (   0.5000000   0.5650000   0.4350000), wk =   0.0049751
        k(   89) = (   0.5000000   0.5600000   0.4400000), wk =   0.0049751
        k(   90) = (   0.5000000   0.5550000   0.4450000), wk =   0.0049751
        k(   91) = (   0.5000000   0.5500000   0.4500000), wk =   0.0049751
        k(   92) = (   0.5000000   0.5450000   0.4550000), wk =   0.0049751
        k(   93) = (   0.5000000   0.5400000   0.4600000), wk =   0.0049751
        k(   94) = (   0.5000000   0.5350000   0.4650000), wk =   0.0049751
        k(   95) = (   0.5000000   0.5300000   0.4700000), wk =   0.0049751
        k(   96) = (   0.5000000   0.5250000   0.4750000), wk =   0.0049751
        k(   97) = (   0.5000000   0.5200000   0.4800000), wk =   0.0049751
        k(   98) = (   0.5000000   0.5150000   0.4850000), wk =   0.0049751
        k(   99) = (   0.5000000   0.5100000   0.4900000), wk =   0.0049751
        k(  100) = (   0.5000000   0.5050000   0.4950000), wk =   0.0049751
        k(  101) = (   0.5000000   0.5000000   0.5000000), wk =   0.0049751
        k(  102) = (   0.4975000   0.5050000   0.4975000), wk =   0.0049751
        k(  103) = (   0.4950000   0.5100000   0.4950000), wk =   0.0049751
        k(  104) = (   0.4925000   0.5150000   0.4925000), wk =   0.0049751
        k(  105) = (   0.4900000   0.5200000   0.4900000), wk =   0.0049751
        k(  106) = (   0.4875000   0.5250000   0.4875000), wk =   0.0049751
        k(  107) = (   0.4850000   0.5300000   0.4850000), wk =   0.0049751
        k(  108) = (   0.4825000   0.5350000   0.4825000), wk =   0.0049751
        k(  109) = (   0.4800000   0.5400000   0.4800000), wk =   0.0049751
        k(  110) = (   0.4775000   0.5450000   0.4775000), wk =   0.0049751
        k(  111) = (   0.4750000   0.5500000   0.4750000), wk =   0.0049751
        k(  112) = (   0.4725000   0.5550000   0.4725000), wk =   0.0049751
        k(  113) = (   0.4700000   0.5600000   0.4700000), wk =   0.0049751
        k(  114) = (   0.4675000   0.5650000   0.4675000), wk =   0.0049751
        k(  115) = (   0.4650000   0.5700000   0.4650000), wk =   0.0049751
        k(  116) = (   0.4625000   0.5750000   0.4625000), wk =   0.0049751
        k(  117) = (   0.4600000   0.5800000   0.4600000), wk =   0.0049751
        k(  118) = (   0.4575000   0.5850000   0.4575000), wk =   0.0049751
        k(  119) = (   0.4550000   0.5900000   0.4550000), wk =   0.0049751
        k(  120) = (   0.4525000   0.5950000   0.4525000), wk =   0.0049751
        k(  121) = (   0.4500000   0.6000000   0.4500000), wk =   0.0049751
        k(  122) = (   0.4475000   0.6050000   0.4475000), wk =   0.0049751
        k(  123) = (   0.4450000   0.6100000   0.4450000), wk =   0.0049751
        k(  124) = (   0.4425000   0.6150000   0.4425000), wk =   0.0049751
        k(  125) = (   0.4400000   0.6200000   0.4400000), wk =   0.0049751
        k(  126) = (   0.4375000   0.6250000   0.4375000), wk =   0.0049751
        k(  127) = (   0.4350000   0.6300000   0.4350000), wk =   0.0049751
        k(  128) = (   0.4325000   0.6350000   0.4325000), wk =   0.0049751
        k(  129) = (   0.4300000   0.6400000   0.4300000), wk =   0.0049751
        k(  130) = (   0.4275000   0.6450000   0.4275000), wk =   0.0049751
        k(  131) = (   0.4250000   0.6500000   0.4250000), wk =   0.0049751
        k(  132) = (   0.4225000   0.6550000   0.4225000), wk =   0.0049751
        k(  133) = (   0.4200000   0.6600000   0.4200000), wk =   0.0049751
        k(  134) = (   0.4175000   0.6650000   0.4175000), wk =   0.0049751
        k(  135) = (   0.4150000   0.6700000   0.4150000), wk =   0.0049751
        k(  136) = (   0.4125000   0.6750000   0.4125000), wk =   0.0049751
        k(  137) = (   0.4100000   0.6800000   0.4100000), wk =   0.0049751
        k(  138) = (   0.4075000   0.6850000   0.4075000), wk =   0.0049751
        k(  139) = (   0.4050000   0.6900000   0.4050000), wk =   0.0049751
        k(  140) = (   0.4025000   0.6950000   0.4025000), wk =   0.0049751
        k(  141) = (   0.4000000   0.7000000   0.4000000), wk =   0.0049751
        k(  142) = (   0.3975000   0.7050000   0.3975000), wk =   0.0049751
        k(  143) = (   0.3950000   0.7100000   0.3950000), wk =   0.0049751
        k(  144) = (   0.3925000   0.7150000   0.3925000), wk =   0.0049751
        k(  145) = (   0.3900000   0.7200000   0.3900000), wk =   0.0049751
        k(  146) = (   0.3875000   0.7250000   0.3875000), wk =   0.0049751
        k(  147) = (   0.3850000   0.7300000   0.3850000), wk =   0.0049751
        k(  148) = (   0.3825000   0.7350000   0.3825000), wk =   0.0049751
        k(  149) = (   0.3800000   0.7400000   0.3800000), wk =   0.0049751
        k(  150) = (   0.3775000   0.7450000   0.3775000), wk =   0.0049751
        k(  151) = (   0.3750000   0.7500000   0.3750000), wk =   0.0049751
        k(  152) = (   0.3725000   0.7550000   0.3725000), wk =   0.0049751
        k(  153) = (   0.3700000   0.7600000   0.3700000), wk =   0.0049751
        k(  154) = (   0.3675000   0.7650000   0.3675000), wk =   0.0049751
        k(  155) = (   0.3650000   0.7700000   0.3650000), wk =   0.0049751
        k(  156) = (   0.3625000   0.7750000   0.3625000), wk =   0.0049751
        k(  157) = (   0.3600000   0.7800000   0.3600000), wk =   0.0049751
        k(  158) = (   0.3575000   0.7850000   0.3575000), wk =   0.0049751
        k(  159) = (   0.3550000   0.7900000   0.3550000), wk =   0.0049751
        k(  160) = (   0.3525000   0.7950000   0.3525000), wk =   0.0049751
        k(  161) = (   0.3500000   0.8000000   0.3500000), wk =   0.0049751
        k(  162) = (   0.3475000   0.8050000   0.3475000), wk =   0.0049751
        k(  163) = (   0.3450000   0.8100000   0.3450000), wk =   0.0049751
        k(  164) = (   0.3425000   0.8150000   0.3425000), wk =   0.0049751
        k(  165) = (   0.3400000   0.8200000   0.3400000), wk =   0.0049751
        k(  166) = (   0.3375000   0.8250000   0.3375000), wk =   0.0049751
        k(  167) = (   0.3350000   0.8300000   0.3350000), wk =   0.0049751
        k(  168) = (   0.3325000   0.8350000   0.3325000), wk =   0.0049751
        k(  169) = (   0.3300000   0.8400000   0.3300000), wk =   0.0049751
        k(  170) = (   0.3275000   0.8450000   0.3275000), wk =   0.0049751
        k(  171) = (   0.3250000   0.8500000   0.3250000), wk =   0.0049751
        k(  172) = (   0.3225000   0.8550000   0.3225000), wk =   0.0049751
        k(  173) = (   0.3200000   0.8600000   0.3200000), wk =   0.0049751
        k(  174) = (   0.3175000   0.8650000   0.3175000), wk =   0.0049751
        k(  175) = (   0.3150000   0.8700000   0.3150000), wk =   0.0049751
        k(  176) = (   0.3125000   0.8750000   0.3125000), wk =   0.0049751
        k(  177) = (   0.3100000   0.8800000   0.3100000), wk =   0.0049751
        k(  178) = (   0.3075000   0.8850000   0.3075000), wk =   0.0049751
        k(  179) = (   0.3050000   0.8900000   0.3050000), wk =   0.0049751
        k(  180) = (   0.3025000   0.8950000   0.3025000), wk =   0.0049751
        k(  181) = (   0.3000000   0.9000000   0.3000000), wk =   0.0049751
        k(  182) = (   0.2975000   0.9050000   0.2975000), wk =   0.0049751
        k(  183) = (   0.2950000   0.9100000   0.2950000), wk =   0.0049751
        k(  184) = (   0.2925000   0.9150000   0.2925000), wk =   0.0049751
        k(  185) = (   0.2900000   0.9200000   0.2900000), wk =   0.0049751
        k(  186) = (   0.2875000   0.9250000   0.2875000), wk =   0.0049751
        k(  187) = (   0.2850000   0.9300000   0.2850000), wk =   0.0049751
        k(  188) = (   0.2825000   0.9350000   0.2825000), wk =   0.0049751
        k(  189) = (   0.2800000   0.9400000   0.2800000), wk =   0.0049751
        k(  190) = (   0.2775000   0.9450000   0.2775000), wk =   0.0049751
        k(  191) = (   0.2750000   0.9500000   0.2750000), wk =   0.0049751
        k(  192) = (   0.2725000   0.9550000   0.2725000), wk =   0.0049751
        k(  193) = (   0.2700000   0.9600000   0.2700000), wk =   0.0049751
        k(  194) = (   0.2675000   0.9650000   0.2675000), wk =   0.0049751
        k(  195) = (   0.2650000   0.9700000   0.2650000), wk =   0.0049751
        k(  196) = (   0.2625000   0.9750000   0.2625000), wk =   0.0049751
        k(  197) = (   0.2600000   0.9800000   0.2600000), wk =   0.0049751
        k(  198) = (   0.2575000   0.9850000   0.2575000), wk =   0.0049751
        k(  199) = (   0.2550000   0.9900000   0.2550000), wk =   0.0049751
        k(  200) = (   0.2525000   0.9950000   0.2525000), wk =   0.0049751
        k(  201) = (   0.2500000   1.0000000   0.2500000), wk =   0.0049751

     Dense  grid:    24123 G-vectors     FFT dimensions: (  45,  45,  45)

     Smooth grid:     7181 G-vectors     FFT dimensions: (  27,  27,  27)

     Estimated max dynamical RAM per process >      12.55Mb

     Estimated total allocated dynamical RAM >     301.26Mb

     Check: negative/imaginary core charge=   -0.000026    0.000000

     The potential is recalculated from file :
     ./pwo.save/charge-density.dat

     Starting wfc are   36 randomized atomic wfcs +   12 random wfc
     Checking if some PAW data can be deallocated... 
       node    0, deallocated PAW data for type:  1
       node    1, deallocated PAW data for type:  1
       node    2, deallocated PAW data for type:  1
       node    3, deallocated PAW data for type:  1
       node    4, deallocated PAW data for type:  1
       node    5, deallocated PAW data for type:  1
       node    6, deallocated PAW data for type:  1
       node    7, deallocated PAW data for type:  1
       node    8, deallocated PAW data for type:  1
       node    9, deallocated PAW data for type:  1
       node   10, deallocated PAW data for type:  1
       node   11, deallocated PAW data for type:  1
       node   12, deallocated PAW data for type:  2
       node   13, deallocated PAW data for type:  2
       node   14, deallocated PAW data for type:  2
       node   15, deallocated PAW data for type:  2
       node   16, deallocated PAW data for type:  2
       node   17, deallocated PAW data for type:  2
       node   18, deallocated PAW data for type:  2
       node   19, deallocated PAW data for type:  2
       node   20, deallocated PAW data for type:  2
       node   21, deallocated PAW data for type:  2
       node   22, deallocated PAW data for type:  2
       node   23, deallocated PAW data for type:  2

     Band Structure Calculation
     Davidson diagonalization with overlap

     Computing kpt #:     1
     total cpu time spent up to now is        2.4 secs

     Computing kpt #:     2
     total cpu time spent up to now is        2.6 secs

     Computing kpt #:     3
     total cpu time spent up to now is        2.8 secs

     Computing kpt #:     4
     total cpu time spent up to now is        3.0 secs

     Computing kpt #:     5
     total cpu time spent up to now is        3.2 secs

     Computing kpt #:     6
     total cpu time spent up to now is        3.4 secs

     Computing kpt #:     7
     total cpu time spent up to now is        3.6 secs

     Computing kpt #:     8
     total cpu time spent up to now is        3.8 secs

     Computing kpt #:     9
     total cpu time spent up to now is        4.0 secs

     Computing kpt #:    10
     total cpu time spent up to now is        4.2 secs

     Computing kpt #:    11
     total cpu time spent up to now is        4.5 secs

     Computing kpt #:    12
     total cpu time spent up to now is        4.7 secs

     Computing kpt #:    13
     total cpu time spent up to now is        4.9 secs

     Computing kpt #:    14
     total cpu time spent up to now is        5.1 secs

     Computing kpt #:    15
     total cpu time spent up to now is        5.3 secs

     Computing kpt #:    16
     total cpu time spent up to now is        5.5 secs

     Computing kpt #:    17
     total cpu time spent up to now is        5.8 secs

     Computing kpt #:    18
     total cpu time spent up to now is        6.0 secs

     Computing kpt #:    19
     total cpu time spent up to now is        6.2 secs

     Computing kpt #:    20
     total cpu time spent up to now is        6.5 secs

     Computing kpt #:    21
     total cpu time spent up to now is        6.7 secs

     Computing kpt #:    22
     total cpu time spent up to now is        6.9 secs

     Computing kpt #:    23
     total cpu time spent up to now is        7.2 secs

     Computing kpt #:    24
     total cpu time spent up to now is        7.4 secs

     Computing kpt #:    25
     total cpu time spent up to now is        7.6 secs

     Computing kpt #:    26
     total cpu time spent up to now is        7.9 secs

     Computing kpt #:    27
     total cpu time spent up to now is        8.1 secs

     Computing kpt #:    28
     total cpu time spent up to now is        8.4 secs

     Computing kpt #:    29
     total cpu time spent up to now is        8.6 secs

     Computing kpt #:    30
     total cpu time spent up to now is        8.8 secs

     Computing kpt #:    31
     total cpu time spent up to now is        9.1 secs

     Computing kpt #:    32
     total cpu time spent up to now is        9.3 secs

     Computing kpt #:    33
     total cpu time spent up to now is        9.5 secs

     Computing kpt #:    34
     total cpu time spent up to now is        9.8 secs

     Computing kpt #:    35
     total cpu time spent up to now is       10.0 secs

     Computing kpt #:    36
     total cpu time spent up to now is       10.2 secs

     Computing kpt #:    37
     total cpu time spent up to now is       10.5 secs

     Computing kpt #:    38
     total cpu time spent up to now is       10.7 secs

     Computing kpt #:    39
     total cpu time spent up to now is       10.9 secs

     Computing kpt #:    40
     total cpu time spent up to now is       11.1 secs

     Computing kpt #:    41
     total cpu time spent up to now is       11.4 secs

     Computing kpt #:    42
     total cpu time spent up to now is       11.6 secs

     Computing kpt #:    43
     total cpu time spent up to now is       11.9 secs

     Computing kpt #:    44
     total cpu time spent up to now is       12.1 secs

     Computing kpt #:    45
     total cpu time spent up to now is       12.3 secs

     Computing kpt #:    46
     total cpu time spent up to now is       12.6 secs

     Computing kpt #:    47
     total cpu time spent up to now is       12.8 secs

     Computing kpt #:    48
     total cpu time spent up to now is       13.1 secs

     Computing kpt #:    49
     total cpu time spent up to now is       13.4 secs

     Computing kpt #:    50
     total cpu time spent up to now is       13.6 secs

     Computing kpt #:    51
     total cpu time spent up to now is       13.9 secs

     Computing kpt #:    52
     total cpu time spent up to now is       14.1 secs

     Computing kpt #:    53
     total cpu time spent up to now is       14.4 secs

     Computing kpt #:    54
     total cpu time spent up to now is       14.6 secs

     Computing kpt #:    55
     total cpu time spent up to now is       14.9 secs

     Computing kpt #:    56
     total cpu time spent up to now is       15.1 secs

     Computing kpt #:    57
     total cpu time spent up to now is       15.4 secs

     Computing kpt #:    58
     total cpu time spent up to now is       15.6 secs

     Computing kpt #:    59
     total cpu time spent up to now is       15.8 secs

     Computing kpt #:    60
     total cpu time spent up to now is       16.1 secs

     Computing kpt #:    61
     total cpu time spent up to now is       16.3 secs

     Computing kpt #:    62
     total cpu time spent up to now is       16.6 secs

     Computing kpt #:    63
     total cpu time spent up to now is       16.8 secs

     Computing kpt #:    64
     total cpu time spent up to now is       17.0 secs

     Computing kpt #:    65
     total cpu time spent up to now is       17.3 secs

     Computing kpt #:    66
     total cpu time spent up to now is       17.5 secs

     Computing kpt #:    67
     total cpu time spent up to now is       17.7 secs

     Computing kpt #:    68
     total cpu time spent up to now is       17.9 secs

     Computing kpt #:    69
     total cpu time spent up to now is       18.2 secs

     Computing kpt #:    70
     total cpu time spent up to now is       18.4 secs

     Computing kpt #:    71
     total cpu time spent up to now is       18.6 secs

     Computing kpt #:    72
     total cpu time spent up to now is       18.9 secs

     Computing kpt #:    73
     total cpu time spent up to now is       19.1 secs

     Computing kpt #:    74
     total cpu time spent up to now is       19.4 secs

     Computing kpt #:    75
     total cpu time spent up to now is       19.6 secs

     Computing kpt #:    76
     total cpu time spent up to now is       19.8 secs

     Computing kpt #:    77
     total cpu time spent up to now is       20.1 secs

     Computing kpt #:    78
     total cpu time spent up to now is       20.3 secs

     Computing kpt #:    79
     total cpu time spent up to now is       20.6 secs

     Computing kpt #:    80
     total cpu time spent up to now is       20.8 secs

     Computing kpt #:    81
     total cpu time spent up to now is       21.0 secs

     Computing kpt #:    82
     total cpu time spent up to now is       21.3 secs

     Computing kpt #:    83
     total cpu time spent up to now is       21.5 secs

     Computing kpt #:    84
     total cpu time spent up to now is       21.7 secs

     Computing kpt #:    85
     total cpu time spent up to now is       21.9 secs

     Computing kpt #:    86
     total cpu time spent up to now is       22.2 secs

     Computing kpt #:    87
     total cpu time spent up to now is       22.4 secs

     Computing kpt #:    88
     total cpu time spent up to now is       22.6 secs

     Computing kpt #:    89
     total cpu time spent up to now is       22.8 secs

     Computing kpt #:    90
     total cpu time spent up to now is       23.0 secs

     Computing kpt #:    91
     total cpu time spent up to now is       23.2 secs

     Computing kpt #:    92
     total cpu time spent up to now is       23.4 secs

     Computing kpt #:    93
     total cpu time spent up to now is       23.6 secs

     Computing kpt #:    94
     total cpu time spent up to now is       23.8 secs

     Computing kpt #:    95
     total cpu time spent up to now is       24.0 secs

     Computing kpt #:    96
     total cpu time spent up to now is       24.2 secs

     Computing kpt #:    97
     total cpu time spent up to now is       24.4 secs

     Computing kpt #:    98
     total cpu time spent up to now is       24.6 secs

     Computing kpt #:    99
     total cpu time spent up to now is       24.8 secs

     Computing kpt #:   100
     total cpu time spent up to now is       25.0 secs

     Computing kpt #:   101
     total cpu time spent up to now is       25.2 secs

     Computing kpt #:   102
     total cpu time spent up to now is       25.4 secs

     Computing kpt #:   103
     total cpu time spent up to now is       25.6 secs

     Computing kpt #:   104
     total cpu time spent up to now is       25.8 secs

     Computing kpt #:   105
     total cpu time spent up to now is       26.0 secs

     Computing kpt #:   106
     total cpu time spent up to now is       26.2 secs

     Computing kpt #:   107
     total cpu time spent up to now is       26.4 secs

     Computing kpt #:   108
     total cpu time spent up to now is       26.6 secs

     Computing kpt #:   109
     total cpu time spent up to now is       26.8 secs

     Computing kpt #:   110
     total cpu time spent up to now is       27.0 secs

     Computing kpt #:   111
     total cpu time spent up to now is       27.2 secs

     Computing kpt #:   112
     total cpu time spent up to now is       27.4 secs

     Computing kpt #:   113
     total cpu time spent up to now is       27.6 secs

     Computing kpt #:   114
     total cpu time spent up to now is       27.9 secs

     Computing kpt #:   115
     total cpu time spent up to now is       28.1 secs

     Computing kpt #:   116
     total cpu time spent up to now is       28.3 secs

     Computing kpt #:   117
     total cpu time spent up to now is       28.5 secs

     Computing kpt #:   118
     total cpu time spent up to now is       28.7 secs

     Computing kpt #:   119
     total cpu time spent up to now is       28.9 secs

     Computing kpt #:   120
     total cpu time spent up to now is       29.2 secs

     Computing kpt #:   121
     total cpu time spent up to now is       29.4 secs

     Computing kpt #:   122
     total cpu time spent up to now is       29.6 secs

     Computing kpt #:   123
     total cpu time spent up to now is       29.9 secs

     Computing kpt #:   124
     total cpu time spent up to now is       30.1 secs

     Computing kpt #:   125
     total cpu time spent up to now is       30.3 secs

     Computing kpt #:   126
     total cpu time spent up to now is       30.6 secs

     Computing kpt #:   127
     total cpu time spent up to now is       30.8 secs

     Computing kpt #:   128
     total cpu time spent up to now is       31.1 secs

     Computing kpt #:   129
     total cpu time spent up to now is       31.3 secs

     Computing kpt #:   130
     total cpu time spent up to now is       31.6 secs

     Computing kpt #:   131
     total cpu time spent up to now is       31.8 secs

     Computing kpt #:   132
     total cpu time spent up to now is       32.1 secs

     Computing kpt #:   133
     total cpu time spent up to now is       32.4 secs

     Computing kpt #:   134
     total cpu time spent up to now is       32.6 secs

     Computing kpt #:   135
     total cpu time spent up to now is       32.9 secs

     Computing kpt #:   136
     total cpu time spent up to now is       33.2 secs

     Computing kpt #:   137
     total cpu time spent up to now is       33.4 secs

     Computing kpt #:   138
     total cpu time spent up to now is       33.7 secs

     Computing kpt #:   139
     total cpu time spent up to now is       33.9 secs

     Computing kpt #:   140
     total cpu time spent up to now is       34.2 secs

     Computing kpt #:   141
     total cpu time spent up to now is       34.5 secs

     Computing kpt #:   142
     total cpu time spent up to now is       34.7 secs

     Computing kpt #:   143
     total cpu time spent up to now is       35.0 secs

     Computing kpt #:   144
     total cpu time spent up to now is       35.3 secs

     Computing kpt #:   145
     total cpu time spent up to now is       35.5 secs

     Computing kpt #:   146
     total cpu time spent up to now is       35.8 secs

     Computing kpt #:   147
     total cpu time spent up to now is       36.1 secs

     Computing kpt #:   148
     total cpu time spent up to now is       36.4 secs

     Computing kpt #:   149
     total cpu time spent up to now is       36.6 secs

     Computing kpt #:   150
     total cpu time spent up to now is       36.9 secs

     Computing kpt #:   151
     total cpu time spent up to now is       37.1 secs

     Computing kpt #:   152
     total cpu time spent up to now is       37.4 secs

     Computing kpt #:   153
     total cpu time spent up to now is       37.7 secs

     Computing kpt #:   154
     total cpu time spent up to now is       37.9 secs

     Computing kpt #:   155
     total cpu time spent up to now is       38.2 secs

     Computing kpt #:   156
     total cpu time spent up to now is       38.4 secs

     Computing kpt #:   157
     total cpu time spent up to now is       38.7 secs

     Computing kpt #:   158
     total cpu time spent up to now is       38.9 secs

     Computing kpt #:   159
     total cpu time spent up to now is       39.2 secs

     Computing kpt #:   160
     total cpu time spent up to now is       39.5 secs

     Computing kpt #:   161
     total cpu time spent up to now is       39.7 secs

     Computing kpt #:   162
     total cpu time spent up to now is       40.0 secs

     Computing kpt #:   163
     total cpu time spent up to now is       40.2 secs

     Computing kpt #:   164
     total cpu time spent up to now is       40.5 secs

     Computing kpt #:   165
     total cpu time spent up to now is       40.8 secs

     Computing kpt #:   166
     total cpu time spent up to now is       41.1 secs

     Computing kpt #:   167
     total cpu time spent up to now is       41.3 secs

     Computing kpt #:   168
     total cpu time spent up to now is       41.6 secs

     Computing kpt #:   169
     total cpu time spent up to now is       41.8 secs

     Computing kpt #:   170
     total cpu time spent up to now is       42.1 secs

     Computing kpt #:   171
     total cpu time spent up to now is       42.3 secs

     Computing kpt #:   172
     total cpu time spent up to now is       42.6 secs

     Computing kpt #:   173
     total cpu time spent up to now is       42.8 secs

     Computing kpt #:   174
     total cpu time spent up to now is       43.1 secs

     Computing kpt #:   175
     total cpu time spent up to now is       43.3 secs

     Computing kpt #:   176
     total cpu time spent up to now is       43.6 secs

     Computing kpt #:   177
     total cpu time spent up to now is       43.9 secs

     Computing kpt #:   178
     total cpu time spent up to now is       44.1 secs

     Computing kpt #:   179
     total cpu time spent up to now is       44.4 secs

     Computing kpt #:   180
     total cpu time spent up to now is       44.6 secs

     Computing kpt #:   181
     total cpu time spent up to now is       44.9 secs

     Computing kpt #:   182
     total cpu time spent up to now is       45.2 secs

     Computing kpt #:   183
     total cpu time spent up to now is       45.4 secs

     Computing kpt #:   184
     total cpu time spent up to now is       45.7 secs

     Computing kpt #:   185
     total cpu time spent up to now is       46.0 secs

     Computing kpt #:   186
     total cpu time spent up to now is       46.3 secs

     Computing kpt #:   187
     total cpu time spent up to now is       46.5 secs

     Computing kpt #:   188
     total cpu time spent up to now is       46.8 secs

     Computing kpt #:   189
     total cpu time spent up to now is       47.1 secs

     Computing kpt #:   190
     total cpu time spent up to now is       47.3 secs

     Computing kpt #:   191
     total cpu time spent up to now is       47.6 secs

     Computing kpt #:   192
     total cpu time spent up to now is       47.8 secs

     Computing kpt #:   193
     total cpu time spent up to now is       48.0 secs

     Computing kpt #:   194
     total cpu time spent up to now is       48.3 secs

     Computing kpt #:   195
     total cpu time spent up to now is       48.5 secs

     Computing kpt #:   196
     total cpu time spent up to now is       48.8 secs

     Computing kpt #:   197
     total cpu time spent up to now is       49.0 secs

     Computing kpt #:   198
     total cpu time spent up to now is       49.2 secs

     Computing kpt #:   199
     total cpu time spent up to now is       49.5 secs

     Computing kpt #:   200
     total cpu time spent up to now is       49.7 secs

     Computing kpt #:   201
     total cpu time spent up to now is       49.9 secs

     ethr =  3.33E-11,  avg # of iterations = 16.6

     total cpu time spent up to now is       49.9 secs

     End of band structure calculation

          k =-0.6050 1.0256 0.0000 (   890 PWs)   bands (ev):

   -28.4967 -28.4967 -28.4906 -28.4906 -27.0303 -27.0303 -27.0247 -27.0247
   -27.0211 -27.0211 -16.0864 -16.0864 -16.0797 -16.0797 -15.5033 -15.5033
   -15.4935 -15.4935 -15.4915 -15.4915  -2.2303  -2.2303   0.1392   0.1392
     7.2204   7.2204   7.7614   7.7614   9.0950   9.0950   9.6475   9.6475
     9.8372   9.8372  10.0497  10.0497  18.0672  18.0672  18.7114  18.7114
    19.4760  19.4760  19.5828  19.5828  19.7671  19.7671  20.2494  20.2494

          k =-0.6050 1.0153-0.0000 (   890 PWs)   bands (ev):

   -28.4967 -28.4967 -28.4906 -28.4906 -27.0302 -27.0302 -27.0247 -27.0247
   -27.0211 -27.0211 -16.0864 -16.0863 -16.0798 -16.0797 -15.5033 -15.5033
   -15.4935 -15.4934 -15.4915 -15.4915  -2.2299  -2.2298   0.1393   0.1403
     7.1936   7.2365   7.7317   7.7795   9.0521   9.1186   9.6262   9.6692
     9.8285   9.8351  10.0704  10.0880  18.0586  18.0672  18.7072  18.7075
    19.4259  19.4619  19.5497  19.5683  19.7892  19.8310  20.2701  20.2811

          k =-0.6050 1.0050-0.0000 (   896 PWs)   bands (ev):

   -28.4985 -28.4985 -28.4916 -28.4916 -27.0319 -27.0319 -27.0264 -27.0264
   -27.0219 -27.0219 -16.0902 -16.0901 -16.0825 -16.0824 -15.5066 -15.5065
   -15.4970 -15.4969 -15.4946 -15.4946  -2.2286  -2.2285   0.1406   0.1425
     7.1561   7.2414   7.6914   7.7866   8.9954   9.1133   9.6197   9.6914
     9.8164   9.8310  10.1370  10.1703  18.0413  18.0586  18.6942  18.6953
    19.3479  19.3963  19.4989  19.5130  19.8767  19.9338  20.3366  20.3557

          k =-0.6050 0.9948 0.0000 (   898 PWs)   bands (ev):

   -28.4990 -28.4990 -28.4921 -28.4921 -27.0324 -27.0324 -27.0270 -27.0270
   -27.0223 -27.0223 -16.0912 -16.0911 -16.0837 -16.0836 -15.5075 -15.5074
   -15.4985 -15.4984 -15.4956 -15.4955  -2.2264  -2.2262   0.1430   0.1459
     7.1079   7.2342   7.6431   7.7847   8.9266   9.0727   9.6425   9.7235
     9.8091   9.8333  10.2297  10.2770  18.0150  18.0407  18.6709  18.6737
    19.2659  19.3167  19.4379  19.4466  19.9878  20.0518  20.4337  20.4583

          k =-0.6050 0.9845 0.0000 (   898 PWs)   bands (ev):

   -28.4990 -28.4990 -28.4921 -28.4921 -27.0324 -27.0323 -27.0270 -27.0270
   -27.0223 -27.0223 -16.0912 -16.0910 -16.0837 -16.0836 -15.5075 -15.5073
   -15.4986 -15.4984 -15.4956 -15.4955  -2.2234  -2.2231   0.1466   0.1505
     7.0494   7.2131   7.5908   7.7759   8.8478   9.0032   9.6899   9.7719
     9.8079   9.8472  10.3377  10.3976  17.9791  18.0130  18.6351  18.6409
    19.1891  19.2388  19.3768  19.3826  20.1093  20.1781  20.5493  20.5777

          k =-0.6050 0.9743 0.0000 (   898 PWs)   bands (ev):

   -28.4990 -28.4990 -28.4921 -28.4920 -27.0323 -27.0323 -27.0270 -27.0270
   -27.0223 -27.0223 -16.0912 -16.0910 -16.0838 -16.0836 -15.5075 -15.5073
   -15.4986 -15.4984 -15.4956 -15.4954  -2.2195  -2.2191   0.1514   0.1562
     6.9812   7.1763   7.5386   7.7625   8.7614   8.9169   9.7398   9.8038
     9.8486   9.8830  10.4555  10.5265  17.9333  17.9746  18.5848  18.5948
    19.1223  19.1688  19.3235  19.3279  20.2370  20.3098  20.6763  20.7076

          k =-0.6050 0.9640 0.0000 (   898 PWs)   bands (ev):

   -28.4990 -28.4989 -28.4920 -28.4920 -27.0323 -27.0323 -27.0270 -27.0270
   -27.0223 -27.0223 -16.0912 -16.0909 -16.0837 -16.0835 -15.5074 -15.5072
   -15.4986 -15.4983 -15.4956 -15.4954  -2.2147  -2.2142   0.1573   0.1631
     6.9043   7.1225   7.4894   7.7455   8.6706   8.8235   9.7720   9.8080
     9.9417   9.9507  10.5800  10.6608  17.8775  17.9253  18.5190  18.5339
    19.0684  19.1105  19.2816  19.2855  20.3690  20.4455  20.8106  20.8443

          k =-0.6050 0.9538-0.0000 (   900 PWs)   bands (ev):

   -28.4995 -28.4994 -28.4924 -28.4924 -27.0329 -27.0329 -27.0272 -27.0272
   -27.0228 -27.0228 -16.0919 -16.0915 -16.0852 -16.0850 -15.5081 -15.5078
   -15.4993 -15.4990 -15.4973 -15.4972  -2.2091  -2.2085   0.1643   0.1711
     6.8200   7.0530   7.4437   7.7253   8.5782   8.7292   9.7903   9.8129
    10.0409  10.0559  10.7092  10.7988  17.8122  17.8653  18.4388  18.4582
    19.0287  19.0664  19.2519  19.2560  20.5041  20.5841  20.9496  20.9856

          k =-0.6050 0.9435-0.0000 (   898 PWs)   bands (ev):

   -28.4988 -28.4988 -28.4920 -28.4920 -27.0324 -27.0324 -27.0265 -27.0264
   -27.0225 -27.0224 -16.0905 -16.0901 -16.0843 -16.0841 -15.5071 -15.5067
   -15.4977 -15.4973 -15.4964 -15.4964  -2.2026  -2.2020   0.1725   0.1802
     6.7296   6.9707   7.3995   7.7012   8.4870   8.6380   9.8032   9.8189
    10.1488  10.1805  10.8420  10.9395  17.7384  17.7953  18.3466  18.3694
    19.0030  19.0367  19.2335  19.2380  20.6416  20.7250  21.0920  21.1300

          k =-0.6050 0.9333 0.0000 (   900 PWs)   bands (ev):

   -28.4992 -28.4991 -28.4925 -28.4925 -27.0327 -27.0326 -27.0271 -27.0271
   -27.0228 -27.0228 -16.0914 -16.0909 -16.0854 -16.0851 -15.5080 -15.5075
   -15.4995 -15.4989 -15.4969 -15.4968  -2.1953  -2.1946   0.1817   0.1905
     6.6344   6.8789   7.3541   7.6719   8.3998   8.5529   9.8144   9.8261
    10.2676  10.3140  10.9775  11.0822  17.6571  17.7166  18.2455  18.2705
    18.9901  19.0203  19.2249  19.2296  20.7809  20.8676  21.2364  21.2764

          k =-0.6050 0.9230 0.0000 (   900 PWs)   bands (ev):

   -28.4989 -28.4988 -28.4928 -28.4927 -27.0329 -27.0328 -27.0268 -27.0268
   -27.0229 -27.0229 -16.0918 -16.0913 -16.0850 -16.0847 -15.5098 -15.5092
   -15.4991 -15.4986 -15.4952 -15.4950  -2.1873  -2.1865   0.1921   0.2019
     6.5356   6.7808   7.3049   7.6351   8.3195   8.4758   9.8252   9.8343
    10.3948  10.4540  11.1149  11.2263  17.5699  17.6307  18.1383  18.1644
    18.9884  19.0156  19.2243  19.2291  20.9215  21.0114  21.3820  21.4241

          k =-0.6050 0.9127 0.0000 (   898 PWs)   bands (ev):

   -28.4981 -28.4980 -28.4926 -28.4925 -27.0318 -27.0317 -27.0265 -27.0265
   -27.0228 -27.0228 -16.0898 -16.0893 -16.0847 -16.0844 -15.5073 -15.5066
   -15.4989 -15.4984 -15.4947 -15.4945  -2.1785  -2.1776   0.2035   0.2144
     6.4341   6.6785   7.2500   7.5886   8.2492   8.4080   9.8363   9.8435
    10.5288  10.5992  11.2538  11.3714  17.4781  17.5392  18.0271  18.0535
    18.9964  19.0210  19.2305  19.2354  21.0629  21.1561  21.5277  21.5719

          k =-0.6050 0.9025 0.0000 (   898 PWs)   bands (ev):

   -28.4981 -28.4980 -28.4926 -28.4925 -27.0318 -27.0317 -27.0265 -27.0265
   -27.0228 -27.0227 -16.0898 -16.0893 -16.0847 -16.0845 -15.5073 -15.5065
   -15.4990 -15.4984 -15.4947 -15.4945  -2.1689  -2.1679   0.2160   0.2279
     6.3309   6.5736   7.1884   7.5307   8.1910   8.3503   9.8478   9.8537
    10.6680  10.7485  11.3937  11.5171  17.3827  17.4435  17.9135  17.9397
    19.0128  19.0349  19.2422  19.2473  21.2045  21.3010  21.6728  21.7192

          k =-0.6050 0.8922 0.0000 (   898 PWs)   bands (ev):

   -28.4981 -28.4980 -28.4925 -28.4925 -27.0318 -27.0317 -27.0265 -27.0265
   -27.0227 -27.0227 -16.0897 -16.0892 -16.0847 -16.0844 -15.5072 -15.5064
   -15.4990 -15.4984 -15.4947 -15.4945  -2.1586  -2.1576   0.2295   0.2425
     6.2266   6.4674   7.1198   7.4608   8.1459   8.3025   9.8599   9.8647
    10.8117  10.9012  11.5344  11.6634  17.2850  17.3448  17.7986  17.8242
    19.0365  19.0565  19.2586  19.2641  21.3459  21.4457  21.8160  21.8648

          k =-0.6050 0.8820 0.0000 (   896 PWs)   bands (ev):

   -28.4975 -28.4974 -28.4921 -28.4921 -27.0313 -27.0312 -27.0259 -27.0259
   -27.0223 -27.0222 -16.0890 -16.0885 -16.0832 -16.0828 -15.5068 -15.5060
   -15.4977 -15.4972 -15.4929 -15.4925  -2.1476  -2.1465   0.2440   0.2581
     6.1220   6.3606   7.0443   7.3799   8.1132   8.2642   9.8727   9.8766
    10.9590  11.0567  11.6755  11.8098  17.1859  17.2441  17.6833  17.7080
    19.0667  19.0846  19.2792  19.2853  21.4864  21.5897  21.9562  22.0074

          k =-0.6050 0.8717-0.0000 (   896 PWs)   bands (ev):

   -28.4974 -28.4973 -28.4921 -28.4921 -27.0312 -27.0311 -27.0259 -27.0259
   -27.0222 -27.0222 -16.0889 -16.0884 -16.0832 -16.0828 -15.5067 -15.5058
   -15.4977 -15.4971 -15.4929 -15.4925  -2.1360  -2.1348   0.2595   0.2746
     6.0174   6.2541   6.9626   7.2899   8.0913   8.2347   9.8861   9.8892
    11.1093  11.2145  11.8168  11.9562  17.0860  17.1424  17.5682  17.5918
    19.1026  19.1188  19.3037  19.3106  21.6253  21.7321  22.0915  22.1454

          k =-0.6050 0.8615-0.0000 (   900 PWs)   bands (ev):

   -28.4986 -28.4984 -28.4927 -28.4927 -27.0320 -27.0319 -27.0273 -27.0273
   -27.0227 -27.0226 -16.0914 -16.0908 -16.0848 -16.0845 -15.5087 -15.5077
   -15.4999 -15.4990 -15.4952 -15.4948  -2.1238  -2.1225   0.2759   0.2922
     5.9134   6.1483   6.8755   7.1932   8.0780   8.2129   9.9001   9.9027
    11.2619  11.3742  11.9580  12.1023  16.9859  17.0401  17.4538  17.4761
    19.1437  19.1583  19.3319  19.3398  21.7619  21.8723  22.2196  22.2763

          k =-0.6050 0.8512-0.0000 (   896 PWs)   bands (ev):

   -28.4970 -28.4969 -28.4924 -28.4923 -27.0301 -27.0300 -27.0267 -27.0266
   -27.0223 -27.0223 -16.0878 -16.0874 -16.0839 -16.0835 -15.5049 -15.5039
   -15.4984 -15.4976 -15.4938 -15.4935  -2.1110  -2.1096   0.2933   0.3107
     5.8104   6.0436   6.7842   7.0917   8.0715   8.1978   9.9148   9.9168
    11.4165  11.5355  12.0990  12.2480  16.8863  16.9381  17.3403  17.3613
    19.1895  19.2026  19.3638  19.3729  21.8950  22.0092  22.3377  22.3971

          k =-0.6050 0.8410 0.0000 (   898 PWs)   bands (ev):

   -28.4977 -28.4976 -28.4925 -28.4925 -27.0307 -27.0306 -27.0272 -27.0272
   -27.0225 -27.0225 -16.0892 -16.0886 -16.0847 -16.0843 -15.5058 -15.5048
   -15.4995 -15.4986 -15.4952 -15.4948  -2.0977  -2.0962   0.3115   0.3301
     5.7085   5.9404   6.6894   6.9871   8.0703   8.1884   9.9301   9.9317
    11.5727  11.6979  12.2394  12.3931  16.7875  16.8366  17.2282  17.2476
    19.2394  19.2513  19.3994  19.4100  22.0232  22.1413  22.4419  22.5035

          k =-0.6050 0.8307 0.0000 (   900 PWs)   bands (ev):

   -28.4980 -28.4978 -28.4932 -28.4932 -27.0309 -27.0307 -27.0277 -27.0276
   -27.0233 -27.0232 -16.0906 -16.0902 -16.0854 -16.0849 -15.5072 -15.5064
   -15.5005 -15.4998 -15.4957 -15.4954  -2.0839  -2.0823   0.3305   0.3503
     5.6082   5.8389   6.5921   6.8806   8.0732   8.1839   9.9459   9.9472
    11.7300  11.8612  12.3792  12.5373  16.6900  16.7361  17.1176  17.1354
    19.2929  19.3037  19.4391  19.4513  22.1449  22.2669  22.5277  22.5904

          k =-0.6050 0.8204-0.0000 (   900 PWs)   bands (ev):

   -28.4979 -28.4978 -28.4932 -28.4932 -27.0309 -27.0307 -27.0277 -27.0276
   -27.0232 -27.0232 -16.0905 -16.0902 -16.0854 -16.0849 -15.5071 -15.5063
   -15.5005 -15.4998 -15.4957 -15.4954  -2.0696  -2.0680   0.3504   0.3714
     5.5097   5.7394   6.4930   6.7731   8.0794   8.1835   9.9623   9.9634
    11.8880  12.0252  12.5180  12.6805  16.5940  16.6370  17.0088  17.0248
    19.3492  19.3591  19.4834  19.4975  22.2575  22.3835  22.5912  22.6525

          k =-0.6050 0.8102-0.0000 (   896 PWs)   bands (ev):

   -28.4972 -28.4970 -28.4920 -28.4920 -27.0301 -27.0299 -27.0267 -27.0266
   -27.0221 -27.0220 -16.0877 -16.0871 -16.0837 -16.0835 -15.5037 -15.5030
   -15.4995 -15.4988 -15.4934 -15.4930  -2.0550  -2.0532   0.3710   0.3932
     5.4133   5.6422   6.3928   6.6653   8.0882   8.1866   9.9791   9.9801
    12.0465  12.1894  12.6557  12.8224  16.4999  16.5395  16.9020  16.9161
    19.4076  19.4166  19.5331  19.5492  22.3577  22.4878  22.6304  22.6858

          k =-0.6050 0.7999-0.0000 (   896 PWs)   bands (ev):

   -28.4971 -28.4970 -28.4920 -28.4920 -27.0300 -27.0299 -27.0267 -27.0266
   -27.0220 -27.0220 -16.0876 -16.0871 -16.0837 -16.0834 -15.5036 -15.5029
   -15.4994 -15.4987 -15.4934 -15.4930  -2.0401  -2.0382   0.3923   0.4157
     5.3190   5.5475   6.2920   6.5577   8.0993   8.1926   9.9963   9.9974
    12.2051  12.3535  12.7920  12.9628  16.4079  16.4439  16.7973  16.8093
    19.4671  19.4751  19.5892  19.6072  22.4404  22.5738  22.6491  22.6898

          k =-0.6050 0.7897 0.0000 (   898 PWs)   bands (ev):

   -28.4978 -28.4977 -28.4922 -28.4922 -27.0307 -27.0305 -27.0270 -27.0269
   -27.0224 -27.0224 -16.0889 -16.0882 -16.0845 -16.0844 -15.5042 -15.5038
   -15.5002 -15.4999 -15.4948 -15.4944  -2.0249  -2.0229   0.4143   0.4389
     5.2272   5.4554   6.1910   6.4507   8.1121   8.2011  10.0139  10.0151
    12.3634  12.5173  12.9269  13.1015  16.3183  16.3505  16.6950  16.7047
    19.5270  19.5340  19.6525  19.6721  22.4956  22.6220  22.6676  22.6714

          k =-0.6050 0.7794 0.0000 (   898 PWs)   bands (ev):

   -28.4977 -28.4976 -28.4921 -28.4921 -27.0306 -27.0304 -27.0270 -27.0269
   -27.0223 -27.0223 -16.0888 -16.0881 -16.0844 -16.0843 -15.5041 -15.5038
   -15.5001 -15.4997 -15.4948 -15.4944  -2.0095  -2.0074   0.4368   0.4628
     5.1380   5.3661   6.0903   6.3446   8.1265   8.2118  10.0318  10.0332
    12.5210  12.6804  13.0601  13.2383  16.2314  16.2595  16.5952  16.6023
    19.5870  19.5928  19.7233  19.7442  22.5073  22.6176  22.6411  22.7095

          k =-0.6050 0.7692 0.0000 (   898 PWs)   bands (ev):

   -28.4977 -28.4976 -28.4921 -28.4920 -27.0305 -27.0304 -27.0269 -27.0268
   -27.0223 -27.0223 -16.0888 -16.0880 -16.0843 -16.0842 -15.5040 -15.5037
   -15.5000 -15.4996 -15.4948 -15.4944  -1.9940  -1.9918   0.4599   0.4871
     5.0516   5.2797   5.9901   6.2398   8.1422   8.2244  10.0500  10.0517
    12.6776  12.8422  13.1915  13.3729  16.1474  16.1712  16.4981  16.5024
    19.6474  19.6521  19.8012  19.8232  22.4758  22.5606  22.6485  22.7311

          k =-0.6050 0.7589 0.0000 (   898 PWs)   bands (ev):

   -28.4978 -28.4977 -28.4918 -28.4918 -27.0308 -27.0306 -27.0267 -27.0266
   -27.0220 -27.0220 -16.0895 -16.0885 -16.0838 -16.0832 -15.5050 -15.5042
   -15.4999 -15.4990 -15.4939 -15.4938  -1.9784  -1.9761   0.4835   0.5120
     4.9682   5.1965   5.8907   6.1363   8.1590   8.2385  10.0685  10.0703
    12.8327  13.0024  13.3208  13.5049  16.0664  16.0859  16.4040  16.4052
    19.7086  19.7123  19.8858  19.9086  22.4204  22.4898  22.6474  22.7297

          k =-0.6050 0.7487-0.0000 (   898 PWs)   bands (ev):

   -28.4978 -28.4977 -28.4917 -28.4917 -27.0308 -27.0306 -27.0266 -27.0265
   -27.0220 -27.0220 -16.0895 -16.0885 -16.0837 -16.0830 -15.5050 -15.5042
   -15.4999 -15.4989 -15.4938 -15.4937  -1.9628  -1.9604   0.5075   0.5372
     4.8879   5.1166   5.7924   6.0344   8.1768   8.2540  10.0871  10.0891
    12.9858  13.1603  13.4481  13.6342  15.9884  16.0043  16.3107  16.3130
    19.7710  19.7743  19.9764  20.0001  22.3529  22.4114  22.6297  22.7067

          k =-0.6050 0.7384-0.0000 (   902 PWs)   bands (ev):

   -28.4987 -28.4986 -28.4926 -28.4926 -27.0318 -27.0317 -27.0277 -27.0276
   -27.0226 -27.0226 -16.0922 -16.0913 -16.0852 -16.0846 -15.5082 -15.5076
   -15.5015 -15.5007 -15.4951 -15.4950  -1.9473  -1.9448   0.5318   0.5628
     4.8108   5.0400   5.6954   5.9343   8.1954   8.2708  10.1059  10.1081
    13.1364  13.3152  13.5733  13.7602  15.9132  15.9272  16.2192  16.2255
    19.8352  19.8385  20.0725  20.0972  22.2786  22.3283  22.5958  22.6658

          k =-0.6050 0.7281 0.0000 (   896 PWs)   bands (ev):

   -28.4976 -28.4974 -28.4910 -28.4910 -27.0307 -27.0305 -27.0262 -27.0261
   -27.0210 -27.0210 -16.0888 -16.0878 -16.0819 -16.0818 -15.5048 -15.5042
   -15.4971 -15.4970 -15.4930 -15.4928  -1.9320  -1.9294   0.5564   0.5887
     4.7372   4.9671   5.5999   5.8361   8.2147   8.2885  10.1246  10.1270
    13.2838  13.4660  13.6966  13.8827  15.8401  15.8560  16.1310  16.1418
    19.9016  19.9052  20.1739  20.1996  22.2007  22.2428  22.5482  22.6110

          k =-0.6050 0.7179 0.0000 (   896 PWs)   bands (ev):

   -28.4976 -28.4974 -28.4910 -28.4909 -27.0307 -27.0305 -27.0262 -27.0261
   -27.0210 -27.0210 -16.0888 -16.0878 -16.0819 -16.0818 -15.5048 -15.5042
   -15.4970 -15.4969 -15.4930 -15.4928  -1.9169  -1.9142   0.5812   0.6147
     4.6671   4.8978   5.5060   5.7399   8.2345   8.3071  10.1434  10.1459
    13.4275  13.6114  13.8182  14.0012  15.7693  15.7911  16.0464  16.0623
    19.9703  19.9745  20.2802  20.3070  22.1212  22.1562  22.4899  22.5459

          k =-0.6050 0.7076 0.0000 (   900 PWs)   bands (ev):

   -28.4988 -28.4987 -28.4916 -28.4916 -27.0319 -27.0317 -27.0275 -27.0274
   -27.0213 -27.0213 -16.0918 -16.0909 -16.0833 -16.0830 -15.5077 -15.5071
   -15.4999 -15.4996 -15.4938 -15.4936  -1.9022  -1.8994   0.6062   0.6408
     4.6007   4.8324   5.4140   5.6459   8.2548   8.3265  10.1620  10.1646
    13.5663  13.7497  13.9388  14.1152  15.7021  15.7324  15.9657  15.9875
    20.0418  20.0466  20.3913  20.4194  22.0415  22.0698  22.4236  22.4735

          k =-0.6050 0.6974 0.0000 (   902 PWs)   bands (ev):

   -28.4994 -28.4993 -28.4919 -28.4919 -27.0327 -27.0325 -27.0276 -27.0275
   -27.0218 -27.0218 -16.0930 -16.0920 -16.0842 -16.0840 -15.5089 -15.5081
   -15.5007 -15.5003 -15.4952 -15.4951  -1.8878  -1.8850   0.6311   0.6669
     4.5383   4.7709   5.3240   5.5542   8.2755   8.3464  10.1804  10.1831
    13.6995  13.8791  14.0589  14.2240  15.6391  15.6803  15.8893  15.9179
    20.1162  20.1217  20.5069  20.5365  21.9629  21.9846  22.3515  22.3960

          k =-0.6050 0.6871 0.0000 (   904 PWs)   bands (ev):

   -28.5001 -28.5000 -28.4921 -28.4921 -27.0337 -27.0335 -27.0277 -27.0276
   -27.0221 -27.0221 -16.0946 -16.0936 -16.0849 -16.0846 -15.5110 -15.5101
   -15.5010 -15.5008 -15.4960 -15.4959  -1.8740  -1.8711   0.6560   0.6928
     4.4798   4.7136   5.2361   5.4650   8.2965   8.3669  10.1984  10.2013
    13.8257  13.9979  14.1784  14.3269  15.5811  15.6351  15.8181  15.8543
    20.1936  20.1998  20.6268  20.6581  21.8864  21.9015  22.2754  22.3151

          k =-0.6050 0.6769 0.0000 (   904 PWs)   bands (ev):

   -28.5001 -28.5000 -28.4921 -28.4921 -27.0337 -27.0335 -27.0276 -27.0275
   -27.0221 -27.0221 -16.0946 -16.0936 -16.0848 -16.0846 -15.5110 -15.5102
   -15.5010 -15.5007 -15.4960 -15.4959  -1.8608  -1.8578   0.6807   0.7186
     4.4254   4.6604   5.1505   5.3782   8.3177   8.3877  10.2161  10.2191
    13.9435  14.1052  14.2961  14.4232  15.5292  15.5976  15.7530  15.7976
    20.2740  20.2810  20.7506  20.7838  21.8131  21.8213  22.1967  22.2323

          k =-0.6050 0.6666 0.0000 (   904 PWs)   bands (ev):

   -28.5001 -28.5000 -28.4921 -28.4920 -27.0337 -27.0335 -27.0276 -27.0275
   -27.0221 -27.0220 -16.0946 -16.0936 -16.0847 -16.0845 -15.5111 -15.5102
   -15.5009 -15.5006 -15.4959 -15.4958  -1.8482  -1.8453   0.7052   0.7440
     4.3753   4.6115   5.0674   5.2942   8.3389   8.4088  10.2333  10.2364
    14.0514  14.2010  14.4096  14.5118  15.4845  15.5683  15.6956  15.7487
    20.3574  20.3653  20.8775  20.9133  21.7438  21.7456  22.1166  22.1485

          k =-0.6050 0.6564-0.0000 (   904 PWs)   bands (ev):

   -28.5001 -28.5000 -28.4920 -28.4920 -27.0337 -27.0335 -27.0275 -27.0274
   -27.0220 -27.0220 -16.0946 -16.0935 -16.0847 -16.0844 -15.5111 -15.5102
   -15.5008 -15.5005 -15.4958 -15.4957  -1.8364  -1.8334   0.7293   0.7691
     4.3295   4.5671   4.9869   5.2130   8.3601   8.4300  10.2500  10.2532
    14.1477  14.2854  14.5153  14.5916  15.4486  15.5469  15.6482  15.7087
    20.4436  20.4526  21.0061  21.0454  21.6743  21.6819  22.0361  22.0648

          k =-0.6050 0.6461 0.0000 (   904 PWs)   bands (ev):

   -28.5001 -28.4999 -28.4919 -28.4919 -27.0337 -27.0335 -27.0274 -27.0273
   -27.0220 -27.0219 -16.0945 -16.0935 -16.0846 -16.0843 -15.5110 -15.5102
   -15.5006 -15.5004 -15.4957 -15.4956  -1.8255  -1.8225   0.7529   0.7935
     4.2883   4.5271   4.9092   5.1347   8.3813   8.4514  10.2659  10.2692
    14.2310  14.3580  14.6090  14.6613  15.4240  15.5318  15.6149  15.6788
    20.5323  20.5425  21.1333  21.1775  21.6122  21.6292  21.9565  21.9824

          k =-0.6050 0.6358-0.0000 (   902 PWs)   bands (ev):

   -28.4995 -28.4994 -28.4914 -28.4914 -27.0333 -27.0332 -27.0266 -27.0264
   -27.0216 -27.0215 -16.0934 -16.0923 -16.0834 -16.0831 -15.5102 -15.5093
   -15.4990 -15.4988 -15.4947 -15.4946  -1.8155  -1.8125   0.7760   0.8173
     4.2516   4.4918   4.8344   5.0595   8.4023   8.4727  10.2811  10.2845
    14.3005  14.4185  14.6865  14.7191  15.4133  15.5205  15.6008  15.6601
    20.6228  20.6346  21.2504  21.3006  21.5677  21.5944  21.8797  21.9030

          k =-0.6050 0.6256 0.0000 (   896 PWs)   bands (ev):

   -28.4976 -28.4974 -28.4905 -28.4904 -27.0310 -27.0308 -27.0257 -27.0256
   -27.0203 -27.0203 -16.0894 -16.0883 -16.0809 -16.0804 -15.5053 -15.5047
   -15.4977 -15.4974 -15.4907 -15.4905  -1.8065  -1.8035   0.7985   0.8404
     4.2195   4.4611   4.7627   4.9876   8.4230   8.4939  10.2955  10.2990
    14.3561  14.4663  14.7440  14.7634  15.4187  15.5143  15.6063  15.6533
    20.7137  20.7274  21.3351  21.3796  21.5730  21.5953  21.8121  21.8324

          k =-0.6050 0.6153-0.0000 (   896 PWs)   bands (ev):

   -28.4976 -28.4975 -28.4904 -28.4904 -27.0311 -27.0309 -27.0257 -27.0256
   -27.0203 -27.0203 -16.0895 -16.0884 -16.0808 -16.0803 -15.5054 -15.5049
   -15.4978 -15.4975 -15.4906 -15.4905  -1.7987  -1.7956   0.8201   0.8626
     4.1921   4.4351   4.6943   4.9190   8.4434   8.5149  10.3088  10.3125
    14.3987  14.5016  14.7797  14.7932  15.4396  15.5180  15.6267  15.6590
    20.8024  20.8185  21.3666  21.3853  21.6220  21.6308  21.7858  21.8020

          k =-0.6050 0.6051 0.0000 (   898 PWs)   bands (ev):

   -28.4976 -28.4974 -28.4914 -28.4914 -27.0309 -27.0308 -27.0265 -27.0264
   -27.0212 -27.0211 -16.0894 -16.0885 -16.0830 -16.0826 -15.5057 -15.5053
   -15.4988 -15.4986 -15.4925 -15.4923  -1.7919  -1.7889   0.8409   0.8837
     4.1695   4.4138   4.6294   4.8538   8.4634   8.5356  10.3212  10.3249
    14.4297  14.5251  14.7947  14.8095  15.4722  15.5347  15.6570  15.6775
    20.8842  20.9026  21.3698  21.3747  21.5941  21.6129  21.8724  21.8788

          k =-0.6050 0.5948 0.0000 (   898 PWs)   bands (ev):

   -28.4976 -28.4975 -28.4914 -28.4914 -27.0310 -27.0309 -27.0265 -27.0264
   -27.0211 -27.0211 -16.0895 -16.0886 -16.0830 -16.0825 -15.5059 -15.5054
   -15.4988 -15.4987 -15.4925 -15.4922  -1.7865  -1.7835   0.8606   0.9038
     4.1517   4.3973   4.5684   4.7924   8.4829   8.5560  10.3324  10.3363
    14.4508  14.5386  14.7942  14.8134  15.5107  15.5631  15.6935  15.7082
    20.9515  20.9702  21.3764  21.3827  21.5360  21.5511  22.0112  22.0189

          k =-0.6050 0.5846-0.0000 (   900 PWs)   bands (ev):

   -28.4989 -28.4988 -28.4911 -28.4911 -27.0326 -27.0325 -27.0269 -27.0268
   -27.0206 -27.0205 -16.0918 -16.0908 -16.0830 -16.0827 -15.5088 -15.5082
   -15.4995 -15.4994 -15.4922 -15.4921  -1.7823  -1.7793   0.8792   0.9226
     4.1386   4.3855   4.5114   4.7348   8.5018   8.5758  10.3425  10.3465
    14.4641  14.5439  14.7839  14.8072  15.5515  15.5984  15.7345  15.7481
    20.9963  21.0108  21.3965  21.4146  21.4790  21.4998  22.1650  22.1774

          k =-0.6050 0.5743-0.0000 (   898 PWs)   bands (ev):

   -28.4987 -28.4986 -28.4905 -28.4905 -27.0324 -27.0323 -27.0262 -27.0261
   -27.0202 -27.0201 -16.0911 -16.0900 -16.0817 -16.0813 -15.5078 -15.5070
   -15.4985 -15.4983 -15.4913 -15.4913  -1.7794  -1.7766   0.8966   0.9400
     4.1302   4.3780   4.4591   4.6811   8.5200   8.5952  10.3513  10.3554
    14.4712  14.5428  14.7682  14.7938  15.5924  15.6363  15.7778  15.7936
    21.0171  21.0250  21.3640  21.4076  21.4956  21.5353  22.3274  22.3432

          k =-0.6050 0.5641 0.0000 (   898 PWs)   bands (ev):

   -28.4988 -28.4986 -28.4905 -28.4904 -27.0325 -27.0324 -27.0262 -27.0261
   -27.0202 -27.0201 -16.0912 -16.0902 -16.0817 -16.0813 -15.5079 -15.5072
   -15.4985 -15.4983 -15.4913 -15.4912  -1.7780  -1.7752   0.9127   0.9561
     4.1263   4.3729   4.4139   4.6316   8.5375   8.6139  10.3587  10.3631
    14.4738  14.5368  14.7500  14.7763  15.6315  15.6741  15.8202  15.8416
    21.0184  21.0261  21.3048  21.3425  21.5979  21.6264  22.4946  22.5134

          k =-0.6050 0.5538-0.0000 (   898 PWs)   bands (ev):

   -28.4988 -28.4987 -28.4905 -28.4904 -27.0326 -27.0325 -27.0261 -27.0261
   -27.0202 -27.0201 -16.0913 -16.0903 -16.0817 -16.0813 -15.5081 -15.5073
   -15.4985 -15.4983 -15.4912 -15.4912  -1.7779  -1.7752   0.9272   0.9705
     4.1266   4.3558   4.3904   4.5864   8.5542   8.6319  10.3648  10.3694
    14.4729  14.5273  14.7314  14.7569  15.6674  15.7105  15.8596  15.8888
    21.0094  21.0234  21.2436  21.2796  21.7183  21.7407  22.6635  22.6856

          k =-0.6050 0.5435-0.0000 (   900 PWs)   bands (ev):

   -28.4995 -28.4994 -28.4907 -28.4907 -27.0333 -27.0332 -27.0265 -27.0264
   -27.0206 -27.0205 -16.0928 -16.0919 -16.0823 -16.0820 -15.5093 -15.5085
   -15.4995 -15.4992 -15.4925 -15.4924  -1.7793  -1.7767   0.9402   0.9834
     4.1306   4.3226   4.3934   4.5456   8.5700   8.6492  10.3694  10.3743
    14.4696  14.5152  14.7138  14.7373  15.6993  15.7442  15.8951  15.9323
    20.9987  21.0187  21.1855  21.2207  21.8503  21.8687  22.8268  22.8544

          k =-0.6050 0.5333 0.0000 (   898 PWs)   bands (ev):

[...]

          k =-0.6050 0.5230-0.3020 (   895 PWs)   bands (ev):

   -28.4974 -28.4974 -28.4893 -28.4893 -27.0310 -27.0310 -27.0255 -27.0255
   -27.0186 -27.0186 -16.0872 -16.0871 -16.0799 -16.0799 -15.5032 -15.5031
   -15.4983 -15.4982 -15.4880 -15.4879  -2.1028  -2.1008   1.3187   1.3343
     4.3464   4.3917   5.8431   5.8679   6.2821   6.2905  12.0114  12.0136
    13.3627  13.3639  14.2081  14.2192  14.9719  14.9909  19.3959  19.4276
    20.0887  20.0944  21.0038  21.0149  21.0584  21.1081  22.4628  22.4689

          k =-0.6050 0.5307-0.3064 (   893 PWs)   bands (ev):

   -28.4967 -28.4967 -28.4891 -28.4891 -27.0303 -27.0303 -27.0252 -27.0252
   -27.0182 -27.0182 -16.0858 -16.0857 -16.0792 -16.0792 -15.5023 -15.5022
   -15.4972 -15.4970 -15.4869 -15.4868  -2.1302  -2.1282   1.3479   1.3619
     4.4055   4.4451   5.8411   5.8631   6.2720   6.2786  11.9898  11.9920
    13.3853  13.3864  14.2103  14.2211  14.8931  14.9111  19.4672  19.5009
    20.0218  20.0277  20.9519  21.0022  21.0926  21.1010  22.3202  22.3271

          k =-0.6050 0.5384-0.3109 (   893 PWs)   bands (ev):

   -28.4967 -28.4967 -28.4891 -28.4891 -27.0303 -27.0303 -27.0253 -27.0253
   -27.0182 -27.0182 -16.0858 -16.0858 -16.0793 -16.0793 -15.5023 -15.5022
   -15.4972 -15.4971 -15.4869 -15.4869  -2.1590  -2.1570   1.3786   1.3910
     4.4670   4.5004   5.8404   5.8592   6.2633   6.2682  11.9694  11.9716
    13.4066  13.4077  14.2121  14.2226  14.8128  14.8298  19.5286  19.5639
    19.9432  19.9491  20.8515  20.8989  21.1893  21.1984  22.1801  22.1871

          k =-0.6050 0.5461-0.3153 (   895 PWs)   bands (ev):

   -28.4973 -28.4973 -28.4896 -28.4896 -27.0307 -27.0307 -27.0260 -27.0260
   -27.0187 -27.0187 -16.0872 -16.0872 -16.0801 -16.0801 -15.5036 -15.5034
   -15.4982 -15.4981 -15.4882 -15.4881  -2.1891  -2.1871   1.4106   1.4215
     4.5307   4.5574   5.8412   5.8561   6.2562   6.2593  11.9504  11.9525
    13.4269  13.4279  14.2134  14.2234  14.7315  14.7474  19.5760  19.6124
    19.8597  19.8654  20.7525  20.7966  21.2940  21.3042  22.0440  22.0506

          k =-0.6050 0.5538-0.3197 (   901 PWs)   bands (ev):

   -28.4989 -28.4989 -28.4909 -28.4909 -27.0326 -27.0326 -27.0269 -27.0268
   -27.0202 -27.0202 -16.0909 -16.0909 -16.0831 -16.0830 -15.5080 -15.5078
   -15.4999 -15.4998 -15.4920 -15.4919  -2.2204  -2.2184   1.4439   1.4532
     4.5966   4.6158   5.8434   5.8537   6.2506   6.2520  11.9328  11.9348
    13.4459  13.4467  14.2135  14.2230  14.6500  14.6646  19.6007  19.6359
    19.7804  19.7872  20.6573  20.6973  21.3984  21.4109  21.9169  21.9218

          k =-0.6050 0.5615-0.3242 (   901 PWs)   bands (ev):

   -28.4989 -28.4989 -28.4909 -28.4909 -27.0326 -27.0326 -27.0269 -27.0269
   -27.0203 -27.0203 -16.0910 -16.0909 -16.0831 -16.0831 -15.5080 -15.5079
   -15.5000 -15.4999 -15.4921 -15.4921  -2.2528  -2.2507   1.4785   1.4863
     4.6645   4.6754   5.8474   5.8522   6.2464   6.2465  11.9166  11.9185
    13.4638  13.4643  14.2118  14.2205  14.5693  14.5824  19.5818  19.6083
    19.7257  19.7399  20.5679  20.6027  21.4820  21.4995  21.8174  21.8178

          k =-0.6050 0.5692-0.3286 (   901 PWs)   bands (ev):

   -28.4990 -28.4990 -28.4910 -28.4910 -27.0327 -27.0327 -27.0269 -27.0269
   -27.0204 -27.0204 -16.0910 -16.0910 -16.0832 -16.0831 -15.5081 -15.5079
   -15.5000 -15.4999 -15.4922 -15.4921  -2.2862  -2.2841   1.5143   1.5205
     4.7342   4.7360   5.8514   5.8531   6.2424   6.2442  11.9020  11.9039
    13.4802  13.4804  14.2064  14.2140  14.4915  14.5027  19.5126  19.5307
    19.7012  19.7208  20.4858  20.5141  21.4853  21.5071  21.8003  21.8039

          k =-0.6050 0.5769-0.3331 (   901 PWs)   bands (ev):

   -28.4990 -28.4990 -28.4910 -28.4910 -27.0327 -27.0327 -27.0269 -27.0269
   -27.0204 -27.0204 -16.0911 -16.0910 -16.0832 -16.0832 -15.5081 -15.5079
   -15.5000 -15.4999 -15.4922 -15.4922  -2.3205  -2.3184   1.5513   1.5559
     4.7973   4.8057   5.8515   5.8607   6.2403   6.2435  11.8890  11.8908
    13.4949  13.4952  14.1939  14.1996  14.4209  14.4292  19.4217  19.4366
    19.6777  19.6960  20.4117  20.4324  21.3963  21.4162  21.8860  21.8875

          k =-0.6050 0.5846-0.3375 (   905 PWs)   bands (ev):

   -28.5002 -28.5001 -28.4918 -28.4918 -27.0337 -27.0337 -27.0282 -27.0282
   -27.0211 -27.0211 -16.0934 -16.0934 -16.0852 -16.0852 -15.5095 -15.5093
   -15.5036 -15.5034 -15.4940 -15.4940  -2.3555  -2.3534   1.5893   1.5923
     4.8589   4.8789   5.8523   5.8704   6.2399   6.2446  11.8776  11.8793
    13.5075  13.5085  14.1674  14.1699  14.3648  14.3690  19.3241  19.3378
    19.6407  19.6547  20.3448  20.3573  21.2752  21.2937  22.0073  22.0075

          k =-0.6050 0.5923-0.3419 (   903 PWs)   bands (ev):

   -28.4996 -28.4996 -28.4915 -28.4915 -27.0333 -27.0332 -27.0277 -27.0276
   -27.0208 -27.0207 -16.0921 -16.0921 -16.0845 -16.0845 -15.5088 -15.5085
   -15.5023 -15.5022 -15.4929 -15.4928  -2.3913  -2.3891   1.6282   1.6297
     4.9206   4.9535   5.8540   5.8825   6.2415   6.2476  11.8679  11.8695
    13.5179  13.5198  14.1195  14.1201  14.3293  14.3295  19.2240  19.2372
    19.5880  19.5967  20.2828  20.2871  21.1455  21.1633  22.1397  22.1408

          k =-0.6050 0.6000-0.3464 (   903 PWs)   bands (ev):

   -28.5001 -28.5000 -28.4912 -28.4911 -27.0339 -27.0339 -27.0272 -27.0272
   -27.0208 -27.0208 -16.0932 -16.0931 -16.0837 -16.0836 -15.5093 -15.5091
   -15.5020 -15.5018 -15.4931 -15.4931  -2.4276  -2.4255   1.6680   1.6681
     4.9819   5.0294   5.8564   5.8971   6.2450   6.2526  11.8600  11.8614
    13.5253  13.5285  14.0525  14.0542  14.3084  14.3112  19.1232  19.1362
    19.5213  19.5247  20.2196  20.2225  21.0130  21.0306  22.2781  22.2796

          k =-0.6050 0.6076-0.3508 (   901 PWs)   bands (ev):

   -28.4995 -28.4995 -28.4910 -28.4909 -27.0333 -27.0333 -27.0269 -27.0269
   -27.0205 -27.0205 -16.0918 -16.0917 -16.0831 -16.0830 -15.5082 -15.5080
   -15.5010 -15.5009 -15.4921 -15.4921  -2.4644  -2.4623   1.7071   1.7087
     5.0424   5.1064   5.8598   5.9145   6.2506   6.2598  11.8537  11.8551
    13.5287  13.5337  13.9778  13.9786  14.2983  14.3023  19.0224  19.0355
    19.4424  19.4434  20.1523  20.1611  20.8799  20.8973  22.4205  22.4221

          k =-0.6050 0.6153-0.3553 (   901 PWs)   bands (ev):

   -28.4996 -28.4996 -28.4910 -28.4910 -27.0334 -27.0334 -27.0270 -27.0270
   -27.0206 -27.0206 -16.0920 -16.0919 -16.0832 -16.0830 -15.5084 -15.5081
   -15.5011 -15.5010 -15.4923 -15.4922  -2.5016  -2.4995   1.7469   1.7500
     5.1016   5.1844   5.8642   5.9349   6.2584   6.2694  11.8493  11.8505
    13.5261  13.5335  13.9008  13.9022  14.2935  14.2978  18.9222  18.9353
    19.3528  19.3574  20.0833  20.0965  20.7468  20.7643  22.5656  22.5670

          k =-0.6050 0.6230-0.3597 (   903 PWs)   bands (ev):

   -28.5002 -28.5002 -28.4915 -28.4915 -27.0340 -27.0339 -27.0275 -27.0275
   -27.0211 -27.0211 -16.0931 -16.0930 -16.0845 -16.0843 -15.5095 -15.5093
   -15.5021 -15.5020 -15.4937 -15.4937  -2.5391  -2.5370   1.7874   1.7920
     5.1591   5.2630   5.8695   5.9583   6.2685   6.2816  11.8466  11.8476
    13.5137  13.5244  13.8269  13.8318  14.2912  14.2954  18.8229  18.8362
    19.2584  19.2657  20.0114  20.0278  20.6143  20.6319  22.7125  22.7135

          k =-0.6050 0.6307-0.3641 (   897 PWs)   bands (ev):

   -28.4984 -28.4984 -28.4908 -28.4907 -27.0319 -27.0319 -27.0267 -27.0267
   -27.0202 -27.0201 -16.0889 -16.0888 -16.0825 -16.0823 -15.5057 -15.5054
   -15.4993 -15.4992 -15.4910 -15.4910  -2.5769  -2.5747   1.8284   1.8344
     5.2145   5.3420   5.8761   5.9849   6.2811   6.2969  11.8458  11.8466
    13.4863  13.5006  13.7642  13.7729  14.2901  14.2940  18.7249  18.7384
    19.1611  19.1705  19.9360  19.9547  20.4826  20.5004  22.8607  22.8610

          k =-0.6050 0.6384-0.3686 (   901 PWs)   bands (ev):

   -28.4986 -28.4986 -28.4926 -28.4926 -27.0322 -27.0322 -27.0271 -27.0270
   -27.0227 -27.0227 -16.0900 -16.0898 -16.0861 -16.0858 -15.5067 -15.5064
   -15.5010 -15.5009 -15.4955 -15.4954  -2.6148  -2.6126   1.8698   1.8773
     5.2673   5.4209   5.8839   6.0144   6.2964   6.3157  11.8467  11.8474
    13.4392  13.4555  13.7197  13.7308  14.2895  14.2930  18.6283  18.6421
    19.0620  19.0730  19.8571  19.8773  20.3519  20.3699  23.0085  23.0095

          k =-0.6050 0.6461-0.3730 (   898 PWs)   bands (ev):

   -28.4982 -28.4982 -28.4918 -28.4918 -27.0317 -27.0317 -27.0264 -27.0263
   -27.0221 -27.0221 -16.0896 -16.0894 -16.0836 -16.0833 -15.5057 -15.5055
   -15.4987 -15.4986 -15.4945 -15.4944  -2.6527  -2.6506   1.9116   1.9206
     5.3173   5.4991   5.8934   6.0465   6.3147   6.3389  11.8494  11.8499
    13.3734  13.3896  13.6934  13.7048  14.2889  14.2919  18.5334  18.5475
    18.9623  18.9745  19.7751  19.7962  20.2223  20.2404  23.1547  23.1579

          k =-0.6050 0.6538-0.3775 (   900 PWs)   bands (ev):

   -28.4988 -28.4988 -28.4924 -28.4924 -27.0323 -27.0322 -27.0271 -27.0271
   -27.0225 -27.0225 -16.0910 -16.0908 -16.0846 -16.0843 -15.5072 -15.5071
   -15.5001 -15.4999 -15.4952 -15.4950  -2.6907  -2.6886   1.9536   1.9640
     5.3643   5.5759   5.9048   6.0803   6.3363   6.3671  11.8539  11.8542
    13.2941  13.3090  13.6793  13.6897  14.2881  14.2906  18.4405  18.4548
    18.8625  18.8755  19.6904  19.7120  20.0938  20.1122  23.2961  23.3045

          k =-0.6050 0.6615-0.3819 (   900 PWs)   bands (ev):

   -28.4989 -28.4989 -28.4925 -28.4925 -27.0324 -27.0323 -27.0272 -27.0272
   -27.0227 -27.0226 -16.0912 -16.0910 -16.0847 -16.0844 -15.5073 -15.5072
   -15.5002 -15.5000 -15.4954 -15.4953  -2.7286  -2.7265   1.9959   2.0076
     5.4083   5.6501   5.9190   6.1151   6.3617   6.4015  11.8602  11.8603
    13.2066  13.2199  13.6713  13.6804  14.2869  14.2889  18.3496  18.3642
    18.7631  18.7768  19.6036  19.6254  19.9666  19.9853  23.3116  23.3149

          k =-0.6050 0.6692-0.3863 (   900 PWs)   bands (ev):

   -28.4990 -28.4989 -28.4926 -28.4925 -27.0324 -27.0324 -27.0273 -27.0272
   -27.0228 -27.0227 -16.0913 -16.0911 -16.0849 -16.0845 -15.5074 -15.5073
   -15.5003 -15.5000 -15.4956 -15.4954  -2.7664  -2.7643   2.0382   2.0513
     5.4494   5.7198   5.9370   6.1496   6.3915   6.4427  11.8680  11.8682
    13.1140  13.1259  13.6659  13.6737  14.2851  14.2865  18.2610  18.2759
    18.6644  18.6787  19.5153  19.5370  19.8408  19.8597  23.1474  23.1551

          k =-0.6050 0.6769-0.3908 (   900 PWs)   bands (ev):

   -28.4990 -28.4990 -28.4927 -28.4926 -27.0325 -27.0325 -27.0273 -27.0273
   -27.0229 -27.0228 -16.0914 -16.0912 -16.0850 -16.0846 -15.5075 -15.5074
   -15.5004 -15.5001 -15.4958 -15.4956  -2.8040  -2.8019   2.0805   2.0950
     5.4879   5.7824   5.9608   6.1832   6.4264   6.4915  11.8775  11.8780
    13.0182  13.0288  13.6612  13.6680  14.2826  14.2835  18.1749  18.1901
    18.5668  18.5815  19.4261  19.4475  19.7165  19.7357  22.9826  22.9902

          k =-0.6050 0.6846-0.3952 (   898 PWs)   bands (ev):

   -28.4986 -28.4986 -28.4923 -28.4923 -27.0320 -27.0320 -27.0270 -27.0270
   -27.0225 -27.0224 -16.0904 -16.0902 -16.0840 -16.0836 -15.5065 -15.5064
   -15.4997 -15.4995 -15.4944 -15.4943  -2.8413  -2.8392   2.1228   2.1385
     5.5241   5.8348   5.9928   6.2154   6.4671   6.5478  11.8887  11.8894
    12.9202  12.9297  13.6564  13.6622  14.2794  14.2796  18.0914  18.1068
    18.4702  18.4853  19.3364  19.3576  19.5937  19.6131  22.8193  22.8265

          k =-0.6050 0.6923-0.3997 (   898 PWs)   bands (ev):

   -28.4986 -28.4986 -28.4924 -28.4923 -27.0321 -27.0321 -27.0271 -27.0271
   -27.0225 -27.0225 -16.0905 -16.0903 -16.0841 -16.0837 -15.5066 -15.5064
   -15.4997 -15.4995 -15.4945 -15.4945  -2.8784  -2.8763   2.1649   2.1818
     5.5585   5.8756   6.0336   6.2461   6.5144   6.6113  11.9014  11.9025
    12.8205  12.8291  13.6508  13.6556  14.2748  14.2752  18.0106  18.0262
    18.3749  18.3902  19.2470  19.2677  19.4725  19.4922  22.6582  22.6648

          k =-0.6050 0.6999-0.4041 (   900 PWs)   bands (ev):

   -28.4988 -28.4988 -28.4933 -28.4932 -27.0323 -27.0323 -27.0274 -27.0274
   -27.0236 -27.0235 -16.0912 -16.0910 -16.0857 -16.0853 -15.5074 -15.5072
   -15.5011 -15.5010 -15.4959 -15.4958  -2.9151  -2.9130   2.2068   2.2249
     5.5914   5.9070   6.0802   6.2755   6.5689   6.6812  11.9157  11.9170
    12.7198  12.7275  13.6439  13.6479  14.2690  14.2701  17.9326  17.9485
    18.2808  18.2964  19.1582  19.1785  19.3530  19.3731  22.4994  22.5055

          k =-0.6050 0.7076-0.4086 (   899 PWs)   bands (ev):

   -28.4986 -28.4986 -28.4931 -28.4930 -27.0321 -27.0320 -27.0273 -27.0273
   -27.0234 -27.0233 -16.0913 -16.0911 -16.0847 -16.0843 -15.5072 -15.5070
   -15.5005 -15.5004 -15.4952 -15.4951  -2.9514  -2.9493   2.2484   2.2676
     5.6232   5.9330   6.1285   6.3041   6.6307   6.7568  11.9313  11.9330
    12.6181  12.6251  13.6356  13.6388  14.2622  14.2640  17.8576  17.8737
    18.1880  18.2038  19.0707  19.0904  19.2354  19.2559  22.3431  22.3488

          k =-0.6050 0.7153-0.4130 (   899 PWs)   bands (ev):

   -28.4987 -28.4986 -28.4931 -28.4931 -27.0321 -27.0321 -27.0273 -27.0273
   -27.0235 -27.0234 -16.0913 -16.0911 -16.0848 -16.0844 -15.5073 -15.5071
   -15.5005 -15.5004 -15.4953 -15.4953  -2.9873  -2.9852   2.2896   2.3098
     5.6544   5.9565   6.1758   6.3322   6.6998   6.8373  11.9481  11.9503
    12.5159  12.5223  13.6256  13.6280  14.2542  14.2567  17.7857  17.8019
    18.0964  18.1123  18.9847  19.0040  19.1199  19.1407  22.1894  22.1947

          k =-0.6050 0.7230-0.4174 (   899 PWs)   bands (ev):

   -28.4987 -28.4987 -28.4932 -28.4931 -27.0321 -27.0321 -27.0273 -27.0273
   -27.0235 -27.0235 -16.0914 -16.0912 -16.0848 -16.0844 -15.5073 -15.5071
   -15.5005 -15.5004 -15.4954 -15.4954  -3.0226  -3.0206   2.3303   2.3516
     5.6852   5.9790   6.2209   6.3602   6.7754   6.9219  11.9659  11.9686
    12.4136  12.4194  13.6138  13.6155  14.2451  14.2484  17.7168  17.7330
    18.0059  18.0218  18.9009  18.9196  19.0065  19.0277  22.0385  22.0434

          k =-0.6050 0.7307-0.4219 (   899 PWs)   bands (ev):

   -28.4987 -28.4987 -28.4932 -28.4931 -27.0321 -27.0321 -27.0273 -27.0273
   -27.0236 -27.0235 -16.0914 -16.0912 -16.0848 -16.0844 -15.5074 -15.5072
   -15.5005 -15.5003 -15.4955 -15.4955  -3.0575  -3.0555   2.3705   2.3927
     5.7159   6.0015   6.2636   6.3883   6.8569   7.0101  11.9840  11.9872
    12.3116  12.3170  13.6000  13.6011  14.2348  14.2389  17.6510  17.6672
    17.9164  17.9322  18.8194  18.8374  18.8958  18.9174  21.8904  21.8949

          k =-0.6050 0.7384-0.4263 (   899 PWs)   bands (ev):

   -28.4987 -28.4987 -28.4932 -28.4931 -27.0322 -27.0321 -27.0273 -27.0273
   -27.0236 -27.0236 -16.0914 -16.0912 -16.0848 -16.0844 -15.5074 -15.5072
   -15.5004 -15.5002 -15.4956 -15.4956  -3.0918  -3.0898   2.4102   2.4332
     5.7468   6.0246   6.3043   6.4166   6.9432   7.1013  12.0005  12.0043
    12.2121  12.2170  13.5842  13.5846  14.2233  14.2283  17.5882  17.6041
    17.8278  17.8434  18.7403  18.7569  18.7891  18.8103  21.7453  21.7493

          k =-0.6050 0.7461-0.4308 (   899 PWs)   bands (ev):

   -28.4990 -28.4989 -28.4930 -28.4929 -27.0327 -27.0327 -27.0268 -27.0268
   -27.0236 -27.0235 -16.0912 -16.0910 -16.0851 -16.0846 -15.5077 -15.5075
   -15.5001 -15.4997 -15.4958 -15.4956  -3.1255  -3.1236   2.4492   2.4730
     5.7781   6.0484   6.3434   6.4454   7.0337   7.1952  12.0064  12.0108
    12.1239  12.1285  13.5661  13.5662  14.2108  14.2167  17.5284  17.5438
    17.7402  17.7552  18.6625  18.6706  18.6944  18.7082  21.6030  21.6068

          k =-0.6050 0.7538-0.4352 (   903 PWs)   bands (ev):

   -28.5001 -28.5001 -28.4938 -28.4937 -27.0339 -27.0339 -27.0276 -27.0276
   -27.0244 -27.0244 -16.0927 -16.0925 -16.0880 -16.0875 -15.5091 -15.5088
   -15.5028 -15.5023 -15.4985 -15.4981  -3.1586  -3.1567   2.4875   2.5121
     5.8100   6.0732   6.3814   6.4748   7.1275   7.2914  11.9619  11.9669
    12.0868  12.0914  13.5455  13.5460  14.1972  14.2040  17.4713  17.4858
    17.6533  17.6674  18.5722  18.5804  18.6173  18.6188  21.4638  21.4672

          k =-0.6050 0.7615-0.4396 (   903 PWs)   bands (ev):

   -28.5001 -28.5001 -28.4938 -28.4937 -27.0338 -27.0338 -27.0275 -27.0275
   -27.0247 -27.0247 -16.0930 -16.0928 -16.0878 -16.0873 -15.5090 -15.5089
   -15.5023 -15.5018 -15.4992 -15.4989  -3.1910  -3.1891   2.5251   2.5503
     5.8425   6.0992   6.4186   6.5048   7.2240   7.3896  11.8711  11.8762
    12.0965  12.1019  13.5226  13.5236  14.1827  14.1905  17.4167  17.4295
    17.5676  17.5800  18.4734  18.4893  18.5432  18.5512  21.3276  21.3308

          k =-0.6050 0.7692-0.4441 (   907 PWs)   bands (ev):

   -28.5016 -28.5015 -28.4943 -28.4943 -27.0355 -27.0355 -27.0281 -27.0281
   -27.0255 -27.0255 -16.0959 -16.0957 -16.0894 -16.0889 -15.5121 -15.5120
   -15.5031 -15.5028 -15.5019 -15.5018  -3.2227  -3.2209   2.5620   2.5876
     5.8758   6.1263   6.4555   6.5354   7.3227   7.4894  11.7705  11.7758
    12.1167  12.1230  13.4976  13.4989  14.1675  14.1762  17.3641  17.3738
    17.4836  17.4928  18.3777  18.3961  18.4794  18.4888  21.1946  21.1975

     Writing output data file pwo.save

     init_run     :      0.52s CPU      0.56s WALL (       1 calls)
     electrons    :     47.08s CPU     47.78s WALL (       1 calls)

     Called by init_run:
     wfcinit      :      0.00s CPU      0.00s WALL (       1 calls)
     wfcinit:atom :      0.01s CPU      0.01s WALL (     201 calls)
     wfcinit:wfcr :      2.17s CPU      2.23s WALL (     201 calls)
     potinit      :      0.14s CPU      0.16s WALL (       1 calls)

     Called by electrons:
     c_bands      :     47.07s CPU     47.75s WALL (       1 calls)
     v_of_rho     :      0.00s CPU      0.00s WALL (       1 calls)
     v_h          :      0.00s CPU      0.00s WALL (       1 calls)
     v_xc         :      0.00s CPU      0.00s WALL (       1 calls)
     newd         :      0.08s CPU      0.08s WALL (       1 calls)
     PAW_pot      :      0.12s CPU      0.14s WALL (       1 calls)

     Called by c_bands:
     init_us_2    :      0.01s CPU      0.01s WALL (     201 calls)
     cegterg      :     44.72s CPU     45.34s WALL (     203 calls)

     Called by sum_band:

     Called by *egterg:
     h_psi        :     16.28s CPU     16.89s WALL (    3739 calls)
     s_psi        :      1.63s CPU      1.63s WALL (    3739 calls)
     g_psi        :      0.06s CPU      0.06s WALL (    3335 calls)
     cdiaghg      :     24.54s CPU     24.57s WALL (    3536 calls)
     cegterg:over :      1.92s CPU      1.93s WALL (    3335 calls)
     cegterg:upda :      0.96s CPU      0.95s WALL (    3335 calls)
     cegterg:last :      0.71s CPU      0.71s WALL (     639 calls)
     cdiaghg:chol :      1.02s CPU      1.02s WALL (    3536 calls)
     cdiaghg:inve :      1.01s CPU      1.01s WALL (    3536 calls)
     cdiaghg:para :      2.20s CPU      2.21s WALL (    7072 calls)

     Called by h_psi:
     h_psi:pot    :     16.26s CPU     16.85s WALL (    3739 calls)
     h_psi:calbec :      0.99s CPU      1.01s WALL (    3739 calls)
     vloc_psi     :     13.61s CPU     14.14s WALL (    3739 calls)
     add_vuspsi   :      1.66s CPU      1.68s WALL (    3739 calls)

     General routines
     calbec       :      0.98s CPU      1.01s WALL (    3739 calls)
     fft          :      0.01s CPU      0.01s WALL (      19 calls)
     ffts         :      0.00s CPU      0.00s WALL (       4 calls)
     fftw         :     12.37s CPU     12.70s WALL (  405252 calls)
     interpolate  :      0.00s CPU      0.00s WALL (       4 calls)
     davcio       :      0.00s CPU      0.01s WALL (     201 calls)

     Parallel routines
     fft_scatter  :      8.44s CPU      7.41s WALL (  405275 calls)

     PAW routines
     PAW_pot      :      0.12s CPU      0.14s WALL (       1 calls)

     PWSCF        :  0m49.88s CPU     1m11.55s WALL


   This run was terminated on:  10:31:21  13Jan2017            

=------------------------------------------------------------------------------=
   JOB DONE.
=------------------------------------------------------------------------------=
