
     Program PWSCF v.6.0 (svn rev. 13079) starts on 12Apr2017 at  0:21:49 

     This program is part of the open-source Quantum ESPRESSO suite
     for quantum simulation of materials; please cite
         "P. Giannozzi et al., J. Phys.:Condens. Matter 21 395502 (2009);
          URL http://www.quantum-espresso.org", 
     in publications or presentations arising from this work. More details at
     http://www.quantum-espresso.org/quote

     Parallel version (MPI), running on    20 processors
     R & G space division:  proc/nbgrp/npool/nimage =      20
     Waiting for input...
     Reading input from standard input
Warning: card &IONS ignored
Warning: card     ION_DYNAMICS='BFGS', ignored
Warning: card / ignored
Warning: card &CELL ignored
Warning: card     CELL_DYNAMICS = 'BFGS' ignored
Warning: card     PRESS = 0 ignored
Warning: card / ignored

     Current dimensions of program PWSCF are:
     Max number of different atomic species (ntypx) = 10
     Max number of k-points (npk) =  40000
     Max angular momentum in pseudopotentials (lmaxx) =  3

     Subspace diagonalization in iterative solution of the eigenvalue problem:
     one sub-group per band group will be used
     scalapack distributed-memory algorithm (size of sub-group:  3*  3 procs)


     Parallelization info
     --------------------
     sticks:   dense  smooth     PW     G-vecs:    dense   smooth      PW
     Min         147     147     41                 6044     6044     880
     Max         148     148     42                 6047     6047     882
     Sum        2953    2953    821               120913   120913   17611



     bravais-lattice index     =            0
     lattice parameter (alat)  =      11.5257  a.u.
     unit-cell volume          =    1529.4688 (a.u.)^3
     number of atoms/cell      =            5
     number of atomic types    =            3
     number of electrons       =        74.00
     number of Kohn-Sham states=           48
     kinetic-energy cutoff     =      70.0000  Ry
     charge density cutoff     =     280.0000  Ry
     convergence threshold     =      1.0E-08
     mixing beta               =       0.3000
     number of iterations used =            8  plain     mixing
     Exchange-correlation      = PBE ( 1  4  3  4 0 0)

     celldm(1)=  11.525710  celldm(2)=   0.000000  celldm(3)=   0.000000
     celldm(4)=   0.000000  celldm(5)=   0.000000  celldm(6)=   0.000000

     crystal axes: (cart. coord. in units of alat)
               a(1) = (   1.000000   0.000000   0.000000 )  
               a(2) = (   0.026871   0.999639   0.000000 )  
               a(3) = (   0.026871   0.026159   0.999297 )  

     reciprocal axes: (cart. coord. in units 2 pi/alat)
               b(1) = (  1.000000 -0.026881 -0.026187 )  
               b(2) = (  0.000000  1.000361 -0.026187 )  
               b(3) = (  0.000000  0.000000  1.000704 )  


     PseudoPot. # 1 for Cs read from file:
     ../pp/Cs_oncvpsp.upf
     MD5 check sum: 95e987ccee19ea9b641bdc278c296ad8
     Pseudo is Norm-conserving, Zval =  9.0
     Generated using ONCVPSP code by D. R. Hamann
     Using radial grid of 2414 points,  6 beta functions with: 
                l(1) =   0
                l(2) =   0
                l(3) =   1
                l(4) =   1
                l(5) =   2
                l(6) =   2

     PseudoPot. # 2 for I  read from file:
     ../pp/I_oncvpsp.upf
     MD5 check sum: f523dd222ffac76279e7ba3c23ab4596
     Pseudo is Norm-conserving, Zval = 17.0
     Generated using ONCVPSP code by D. R. Hamann
     Using radial grid of 1196 points,  6 beta functions with: 
                l(1) =   0
                l(2) =   0
                l(3) =   1
                l(4) =   1
                l(5) =   2
                l(6) =   2

     PseudoPot. # 3 for Ge read from file:
     ../pp/Ge_oncvpsp.upf
     MD5 check sum: 5ba2d6519bc98d6012a18e495c67378d
     Pseudo is Norm-conserving + core correction, Zval = 14.0
     Generated using ONCVPSP code by D. R. Hamann
     Using radial grid of 1560 points,  6 beta functions with: 
                l(1) =   0
                l(2) =   0
                l(3) =   1
                l(4) =   1
                l(5) =   2
                l(6) =   2

     atomic species   valence    mass     pseudopotential
        Cs             9.00    55.00000     Cs( 1.00)
        I             17.00    53.00000     I ( 1.00)
        Ge            14.00    32.00000     Ge( 1.00)

     No symmetry found


                                    s                        frac. trans.

      isym =  1     identity                                     

 cryst.   s( 1) = (     1          0          0      )
                  (     0          1          0      )
                  (     0          0          1      )

 cart.    s( 1) = (  1.0000000  0.0000000  0.0000000 )
                  (  0.0000000  1.0000000  0.0000000 )
                  (  0.0000000  0.0000000  1.0000000 )


   Cartesian axes

     site n.     atom                  positions (alat units)
         1           Cs  tau(   1) = (   0.0000000   0.0000000   0.0000000  )
         2           I   tau(   2) = (   0.5180705   0.0242888   0.5038683  )
         3           I   tau(   3) = (   0.5180705   0.5043314   0.0110952  )
         4           I   tau(   4) = (   0.0382012   0.5172307   0.5038683  )
         5           Ge  tau(   5) = (   0.4936004   0.4805102   0.4680965  )

   Crystallographic axes

     site n.     atom                  positions (cryst. coord.)
         1           Cs  tau(   1) = (  0.0000000  0.0000000  0.0000000  )
         2           I   tau(   2) = (  0.5042230  0.0111030  0.5042230  )
         3           I   tau(   3) = (  0.5042230  0.5042230  0.0111030  )
         4           I   tau(   4) = (  0.0111030  0.5042230  0.5042230  )
         5           Ge  tau(   5) = (  0.4684260  0.4684260  0.4684260  )

     number of k points=   500  Marzari-Vanderbilt smearing, width (Ry)=  0.0100
                       cart. coord. in units 2pi/alat
        k(    1) = (   0.0500000   0.0486740   0.0474165), wk =   0.0040000
        k(    2) = (   0.0500000   0.0486740   0.1474869), wk =   0.0040000
        k(    3) = (   0.0500000   0.0486740   0.2475573), wk =   0.0040000
        k(    4) = (   0.0500000   0.0486740   0.3476277), wk =   0.0040000
        k(    5) = (   0.0500000   0.0486740   0.4476981), wk =   0.0040000
        k(    6) = (   0.0500000   0.0486740  -0.4529354), wk =   0.0040000
        k(    7) = (   0.0500000   0.0486740  -0.3528650), wk =   0.0040000
        k(    8) = (   0.0500000   0.0486740  -0.2527946), wk =   0.0040000
        k(    9) = (   0.0500000   0.0486740  -0.1527242), wk =   0.0040000
        k(   10) = (   0.0500000   0.0486740  -0.0526538), wk =   0.0040000
        k(   11) = (   0.0500000   0.1487101   0.0447979), wk =   0.0040000
        k(   12) = (   0.0500000   0.1487101   0.1448683), wk =   0.0040000
        k(   13) = (   0.0500000   0.1487101   0.2449387), wk =   0.0040000
        k(   14) = (   0.0500000   0.1487101   0.3450091), wk =   0.0040000
        k(   15) = (   0.0500000   0.1487101   0.4450795), wk =   0.0040000
        k(   16) = (   0.0500000   0.1487101  -0.4555541), wk =   0.0040000
        k(   17) = (   0.0500000   0.1487101  -0.3554837), wk =   0.0040000
        k(   18) = (   0.0500000   0.1487101  -0.2554133), wk =   0.0040000
        k(   19) = (   0.0500000   0.1487101  -0.1553429), wk =   0.0040000
        k(   20) = (   0.0500000   0.1487101  -0.0552725), wk =   0.0040000
        k(   21) = (   0.0500000   0.2487463   0.0421792), wk =   0.0040000
        k(   22) = (   0.0500000   0.2487463   0.1422496), wk =   0.0040000
        k(   23) = (   0.0500000   0.2487463   0.2423200), wk =   0.0040000
        k(   24) = (   0.0500000   0.2487463   0.3423904), wk =   0.0040000
        k(   25) = (   0.0500000   0.2487463   0.4424608), wk =   0.0040000
        k(   26) = (   0.0500000   0.2487463  -0.4581727), wk =   0.0040000
        k(   27) = (   0.0500000   0.2487463  -0.3581023), wk =   0.0040000
        k(   28) = (   0.0500000   0.2487463  -0.2580319), wk =   0.0040000
        k(   29) = (   0.0500000   0.2487463  -0.1579615), wk =   0.0040000
        k(   30) = (   0.0500000   0.2487463  -0.0578911), wk =   0.0040000
        k(   31) = (   0.0500000   0.3487824   0.0395606), wk =   0.0040000
        k(   32) = (   0.0500000   0.3487824   0.1396310), wk =   0.0040000
        k(   33) = (   0.0500000   0.3487824   0.2397014), wk =   0.0040000
        k(   34) = (   0.0500000   0.3487824   0.3397718), wk =   0.0040000
        k(   35) = (   0.0500000   0.3487824   0.4398422), wk =   0.0040000
        k(   36) = (   0.0500000   0.3487824  -0.4607914), wk =   0.0040000
        k(   37) = (   0.0500000   0.3487824  -0.3607210), wk =   0.0040000
        k(   38) = (   0.0500000   0.3487824  -0.2606506), wk =   0.0040000
        k(   39) = (   0.0500000   0.3487824  -0.1605802), wk =   0.0040000
        k(   40) = (   0.0500000   0.3487824  -0.0605098), wk =   0.0040000
        k(   41) = (   0.0500000   0.4488185   0.0369419), wk =   0.0040000
        k(   42) = (   0.0500000   0.4488185   0.1370123), wk =   0.0040000
        k(   43) = (   0.0500000   0.4488185   0.2370827), wk =   0.0040000
        k(   44) = (   0.0500000   0.4488185   0.3371531), wk =   0.0040000
        k(   45) = (   0.0500000   0.4488185   0.4372235), wk =   0.0040000
        k(   46) = (   0.0500000   0.4488185  -0.4634100), wk =   0.0040000
        k(   47) = (   0.0500000   0.4488185  -0.3633396), wk =   0.0040000
        k(   48) = (   0.0500000   0.4488185  -0.2632692), wk =   0.0040000
        k(   49) = (   0.0500000   0.4488185  -0.1631988), wk =   0.0040000
        k(   50) = (   0.0500000   0.4488185  -0.0631285), wk =   0.0040000
        k(   51) = (   0.0500000  -0.4515066   0.0605098), wk =   0.0040000
        k(   52) = (   0.0500000  -0.4515066   0.1605802), wk =   0.0040000
        k(   53) = (   0.0500000  -0.4515066   0.2606506), wk =   0.0040000
        k(   54) = (   0.0500000  -0.4515066   0.3607210), wk =   0.0040000
        k(   55) = (   0.0500000  -0.4515066   0.4607914), wk =   0.0040000
        k(   56) = (   0.0500000  -0.4515066  -0.4398422), wk =   0.0040000
        k(   57) = (   0.0500000  -0.4515066  -0.3397718), wk =   0.0040000
        k(   58) = (   0.0500000  -0.4515066  -0.2397014), wk =   0.0040000
        k(   59) = (   0.0500000  -0.4515066  -0.1396310), wk =   0.0040000
        k(   60) = (   0.0500000  -0.4515066  -0.0395606), wk =   0.0040000
        k(   61) = (   0.0500000  -0.3514705   0.0578911), wk =   0.0040000
        k(   62) = (   0.0500000  -0.3514705   0.1579615), wk =   0.0040000
        k(   63) = (   0.0500000  -0.3514705   0.2580319), wk =   0.0040000
        k(   64) = (   0.0500000  -0.3514705   0.3581023), wk =   0.0040000
        k(   65) = (   0.0500000  -0.3514705   0.4581727), wk =   0.0040000
        k(   66) = (   0.0500000  -0.3514705  -0.4424608), wk =   0.0040000
        k(   67) = (   0.0500000  -0.3514705  -0.3423904), wk =   0.0040000
        k(   68) = (   0.0500000  -0.3514705  -0.2423200), wk =   0.0040000
        k(   69) = (   0.0500000  -0.3514705  -0.1422496), wk =   0.0040000
        k(   70) = (   0.0500000  -0.3514705  -0.0421792), wk =   0.0040000
        k(   71) = (   0.0500000  -0.2514344   0.0552725), wk =   0.0040000
        k(   72) = (   0.0500000  -0.2514344   0.1553429), wk =   0.0040000
        k(   73) = (   0.0500000  -0.2514344   0.2554133), wk =   0.0040000
        k(   74) = (   0.0500000  -0.2514344   0.3554837), wk =   0.0040000
        k(   75) = (   0.0500000  -0.2514344   0.4555541), wk =   0.0040000
        k(   76) = (   0.0500000  -0.2514344  -0.4450795), wk =   0.0040000
        k(   77) = (   0.0500000  -0.2514344  -0.3450091), wk =   0.0040000
        k(   78) = (   0.0500000  -0.2514344  -0.2449387), wk =   0.0040000
        k(   79) = (   0.0500000  -0.2514344  -0.1448683), wk =   0.0040000
        k(   80) = (   0.0500000  -0.2514344  -0.0447979), wk =   0.0040000
        k(   81) = (   0.0500000  -0.1513982   0.0526538), wk =   0.0040000
        k(   82) = (   0.0500000  -0.1513982   0.1527242), wk =   0.0040000
        k(   83) = (   0.0500000  -0.1513982   0.2527946), wk =   0.0040000
        k(   84) = (   0.0500000  -0.1513982   0.3528650), wk =   0.0040000
        k(   85) = (   0.0500000  -0.1513982   0.4529354), wk =   0.0040000
        k(   86) = (   0.0500000  -0.1513982  -0.4476981), wk =   0.0040000
        k(   87) = (   0.0500000  -0.1513982  -0.3476277), wk =   0.0040000
        k(   88) = (   0.0500000  -0.1513982  -0.2475573), wk =   0.0040000
        k(   89) = (   0.0500000  -0.1513982  -0.1474869), wk =   0.0040000
        k(   90) = (   0.0500000  -0.1513982  -0.0474165), wk =   0.0040000
        k(   91) = (   0.0500000  -0.0513621   0.0500352), wk =   0.0040000
        k(   92) = (   0.0500000  -0.0513621   0.1501056), wk =   0.0040000
        k(   93) = (   0.0500000  -0.0513621   0.2501760), wk =   0.0040000
        k(   94) = (   0.0500000  -0.0513621   0.3502464), wk =   0.0040000
        k(   95) = (   0.0500000  -0.0513621   0.4503168), wk =   0.0040000
        k(   96) = (   0.0500000  -0.0513621  -0.4503168), wk =   0.0040000
        k(   97) = (   0.0500000  -0.0513621  -0.3502464), wk =   0.0040000
        k(   98) = (   0.0500000  -0.0513621  -0.2501760), wk =   0.0040000
        k(   99) = (   0.0500000  -0.0513621  -0.1501056), wk =   0.0040000
        k(  100) = (   0.0500000  -0.0513621  -0.0500352), wk =   0.0040000
        k(  101) = (   0.1500000   0.0459859   0.0447979), wk =   0.0040000
        k(  102) = (   0.1500000   0.0459859   0.1448683), wk =   0.0040000
        k(  103) = (   0.1500000   0.0459859   0.2449387), wk =   0.0040000
        k(  104) = (   0.1500000   0.0459859   0.3450091), wk =   0.0040000
        k(  105) = (   0.1500000   0.0459859   0.4450795), wk =   0.0040000
        k(  106) = (   0.1500000   0.0459859  -0.4555541), wk =   0.0040000
        k(  107) = (   0.1500000   0.0459859  -0.3554837), wk =   0.0040000
        k(  108) = (   0.1500000   0.0459859  -0.2554133), wk =   0.0040000
        k(  109) = (   0.1500000   0.0459859  -0.1553429), wk =   0.0040000
        k(  110) = (   0.1500000   0.0459859  -0.0552725), wk =   0.0040000
        k(  111) = (   0.1500000   0.1460220   0.0421792), wk =   0.0040000
        k(  112) = (   0.1500000   0.1460220   0.1422496), wk =   0.0040000
        k(  113) = (   0.1500000   0.1460220   0.2423200), wk =   0.0040000
        k(  114) = (   0.1500000   0.1460220   0.3423904), wk =   0.0040000
        k(  115) = (   0.1500000   0.1460220   0.4424608), wk =   0.0040000
        k(  116) = (   0.1500000   0.1460220  -0.4581727), wk =   0.0040000
        k(  117) = (   0.1500000   0.1460220  -0.3581023), wk =   0.0040000
        k(  118) = (   0.1500000   0.1460220  -0.2580319), wk =   0.0040000
        k(  119) = (   0.1500000   0.1460220  -0.1579615), wk =   0.0040000
        k(  120) = (   0.1500000   0.1460220  -0.0578911), wk =   0.0040000
        k(  121) = (   0.1500000   0.2460582   0.0395606), wk =   0.0040000
        k(  122) = (   0.1500000   0.2460582   0.1396310), wk =   0.0040000
        k(  123) = (   0.1500000   0.2460582   0.2397014), wk =   0.0040000
        k(  124) = (   0.1500000   0.2460582   0.3397718), wk =   0.0040000
        k(  125) = (   0.1500000   0.2460582   0.4398422), wk =   0.0040000
        k(  126) = (   0.1500000   0.2460582  -0.4607914), wk =   0.0040000
        k(  127) = (   0.1500000   0.2460582  -0.3607210), wk =   0.0040000
        k(  128) = (   0.1500000   0.2460582  -0.2606506), wk =   0.0040000
        k(  129) = (   0.1500000   0.2460582  -0.1605802), wk =   0.0040000
        k(  130) = (   0.1500000   0.2460582  -0.0605098), wk =   0.0040000
        k(  131) = (   0.1500000   0.3460943   0.0369419), wk =   0.0040000
        k(  132) = (   0.1500000   0.3460943   0.1370123), wk =   0.0040000
        k(  133) = (   0.1500000   0.3460943   0.2370827), wk =   0.0040000
        k(  134) = (   0.1500000   0.3460943   0.3371531), wk =   0.0040000
        k(  135) = (   0.1500000   0.3460943   0.4372235), wk =   0.0040000
        k(  136) = (   0.1500000   0.3460943  -0.4634100), wk =   0.0040000
        k(  137) = (   0.1500000   0.3460943  -0.3633396), wk =   0.0040000
        k(  138) = (   0.1500000   0.3460943  -0.2632692), wk =   0.0040000
        k(  139) = (   0.1500000   0.3460943  -0.1631988), wk =   0.0040000
        k(  140) = (   0.1500000   0.3460943  -0.0631285), wk =   0.0040000
        k(  141) = (   0.1500000   0.4461304   0.0343233), wk =   0.0040000
        k(  142) = (   0.1500000   0.4461304   0.1343937), wk =   0.0040000
        k(  143) = (   0.1500000   0.4461304   0.2344641), wk =   0.0040000
        k(  144) = (   0.1500000   0.4461304   0.3345345), wk =   0.0040000
        k(  145) = (   0.1500000   0.4461304   0.4346049), wk =   0.0040000
        k(  146) = (   0.1500000   0.4461304  -0.4660287), wk =   0.0040000
        k(  147) = (   0.1500000   0.4461304  -0.3659583), wk =   0.0040000
        k(  148) = (   0.1500000   0.4461304  -0.2658879), wk =   0.0040000
        k(  149) = (   0.1500000   0.4461304  -0.1658175), wk =   0.0040000
        k(  150) = (   0.1500000   0.4461304  -0.0657471), wk =   0.0040000
        k(  151) = (   0.1500000  -0.4541947   0.0578911), wk =   0.0040000
        k(  152) = (   0.1500000  -0.4541947   0.1579615), wk =   0.0040000
        k(  153) = (   0.1500000  -0.4541947   0.2580319), wk =   0.0040000
        k(  154) = (   0.1500000  -0.4541947   0.3581023), wk =   0.0040000
        k(  155) = (   0.1500000  -0.4541947   0.4581727), wk =   0.0040000
        k(  156) = (   0.1500000  -0.4541947  -0.4424608), wk =   0.0040000
        k(  157) = (   0.1500000  -0.4541947  -0.3423904), wk =   0.0040000
        k(  158) = (   0.1500000  -0.4541947  -0.2423200), wk =   0.0040000
        k(  159) = (   0.1500000  -0.4541947  -0.1422496), wk =   0.0040000
        k(  160) = (   0.1500000  -0.4541947  -0.0421792), wk =   0.0040000
        k(  161) = (   0.1500000  -0.3541586   0.0552725), wk =   0.0040000
        k(  162) = (   0.1500000  -0.3541586   0.1553429), wk =   0.0040000
        k(  163) = (   0.1500000  -0.3541586   0.2554133), wk =   0.0040000
        k(  164) = (   0.1500000  -0.3541586   0.3554837), wk =   0.0040000
        k(  165) = (   0.1500000  -0.3541586   0.4555541), wk =   0.0040000
        k(  166) = (   0.1500000  -0.3541586  -0.4450795), wk =   0.0040000
        k(  167) = (   0.1500000  -0.3541586  -0.3450091), wk =   0.0040000
        k(  168) = (   0.1500000  -0.3541586  -0.2449387), wk =   0.0040000
        k(  169) = (   0.1500000  -0.3541586  -0.1448683), wk =   0.0040000
        k(  170) = (   0.1500000  -0.3541586  -0.0447979), wk =   0.0040000
        k(  171) = (   0.1500000  -0.2541225   0.0526538), wk =   0.0040000
        k(  172) = (   0.1500000  -0.2541225   0.1527242), wk =   0.0040000
        k(  173) = (   0.1500000  -0.2541225   0.2527946), wk =   0.0040000
        k(  174) = (   0.1500000  -0.2541225   0.3528650), wk =   0.0040000
        k(  175) = (   0.1500000  -0.2541225   0.4529354), wk =   0.0040000
        k(  176) = (   0.1500000  -0.2541225  -0.4476981), wk =   0.0040000
        k(  177) = (   0.1500000  -0.2541225  -0.3476277), wk =   0.0040000
        k(  178) = (   0.1500000  -0.2541225  -0.2475573), wk =   0.0040000
        k(  179) = (   0.1500000  -0.2541225  -0.1474869), wk =   0.0040000
        k(  180) = (   0.1500000  -0.2541225  -0.0474165), wk =   0.0040000
        k(  181) = (   0.1500000  -0.1540863   0.0500352), wk =   0.0040000
        k(  182) = (   0.1500000  -0.1540863   0.1501056), wk =   0.0040000
        k(  183) = (   0.1500000  -0.1540863   0.2501760), wk =   0.0040000
        k(  184) = (   0.1500000  -0.1540863   0.3502464), wk =   0.0040000
        k(  185) = (   0.1500000  -0.1540863   0.4503168), wk =   0.0040000
        k(  186) = (   0.1500000  -0.1540863  -0.4503168), wk =   0.0040000
        k(  187) = (   0.1500000  -0.1540863  -0.3502464), wk =   0.0040000
        k(  188) = (   0.1500000  -0.1540863  -0.2501760), wk =   0.0040000
        k(  189) = (   0.1500000  -0.1540863  -0.1501056), wk =   0.0040000
        k(  190) = (   0.1500000  -0.1540863  -0.0500352), wk =   0.0040000
        k(  191) = (   0.1500000  -0.0540502   0.0474165), wk =   0.0040000
        k(  192) = (   0.1500000  -0.0540502   0.1474869), wk =   0.0040000
        k(  193) = (   0.1500000  -0.0540502   0.2475573), wk =   0.0040000
        k(  194) = (   0.1500000  -0.0540502   0.3476277), wk =   0.0040000
        k(  195) = (   0.1500000  -0.0540502   0.4476981), wk =   0.0040000
        k(  196) = (   0.1500000  -0.0540502  -0.4529354), wk =   0.0040000
        k(  197) = (   0.1500000  -0.0540502  -0.3528650), wk =   0.0040000
        k(  198) = (   0.1500000  -0.0540502  -0.2527946), wk =   0.0040000
        k(  199) = (   0.1500000  -0.0540502  -0.1527242), wk =   0.0040000
        k(  200) = (   0.1500000  -0.0540502  -0.0526538), wk =   0.0040000
        k(  201) = (   0.2500000   0.0432978   0.0421792), wk =   0.0040000
        k(  202) = (   0.2500000   0.0432978   0.1422496), wk =   0.0040000
        k(  203) = (   0.2500000   0.0432978   0.2423200), wk =   0.0040000
        k(  204) = (   0.2500000   0.0432978   0.3423904), wk =   0.0040000
        k(  205) = (   0.2500000   0.0432978   0.4424608), wk =   0.0040000
        k(  206) = (   0.2500000   0.0432978  -0.4581727), wk =   0.0040000
        k(  207) = (   0.2500000   0.0432978  -0.3581023), wk =   0.0040000
        k(  208) = (   0.2500000   0.0432978  -0.2580319), wk =   0.0040000
        k(  209) = (   0.2500000   0.0432978  -0.1579615), wk =   0.0040000
        k(  210) = (   0.2500000   0.0432978  -0.0578911), wk =   0.0040000
        k(  211) = (   0.2500000   0.1433339   0.0395606), wk =   0.0040000
        k(  212) = (   0.2500000   0.1433339   0.1396310), wk =   0.0040000
        k(  213) = (   0.2500000   0.1433339   0.2397014), wk =   0.0040000
        k(  214) = (   0.2500000   0.1433339   0.3397718), wk =   0.0040000
        k(  215) = (   0.2500000   0.1433339   0.4398422), wk =   0.0040000
        k(  216) = (   0.2500000   0.1433339  -0.4607914), wk =   0.0040000
        k(  217) = (   0.2500000   0.1433339  -0.3607210), wk =   0.0040000
        k(  218) = (   0.2500000   0.1433339  -0.2606506), wk =   0.0040000
        k(  219) = (   0.2500000   0.1433339  -0.1605802), wk =   0.0040000
        k(  220) = (   0.2500000   0.1433339  -0.0605098), wk =   0.0040000
        k(  221) = (   0.2500000   0.2433701   0.0369419), wk =   0.0040000
        k(  222) = (   0.2500000   0.2433701   0.1370123), wk =   0.0040000
        k(  223) = (   0.2500000   0.2433701   0.2370827), wk =   0.0040000
        k(  224) = (   0.2500000   0.2433701   0.3371531), wk =   0.0040000
        k(  225) = (   0.2500000   0.2433701   0.4372235), wk =   0.0040000
        k(  226) = (   0.2500000   0.2433701  -0.4634100), wk =   0.0040000
        k(  227) = (   0.2500000   0.2433701  -0.3633396), wk =   0.0040000
        k(  228) = (   0.2500000   0.2433701  -0.2632692), wk =   0.0040000
        k(  229) = (   0.2500000   0.2433701  -0.1631988), wk =   0.0040000
        k(  230) = (   0.2500000   0.2433701  -0.0631285), wk =   0.0040000
        k(  231) = (   0.2500000   0.3434062   0.0343233), wk =   0.0040000
        k(  232) = (   0.2500000   0.3434062   0.1343937), wk =   0.0040000
        k(  233) = (   0.2500000   0.3434062   0.2344641), wk =   0.0040000
        k(  234) = (   0.2500000   0.3434062   0.3345345), wk =   0.0040000
        k(  235) = (   0.2500000   0.3434062   0.4346049), wk =   0.0040000
        k(  236) = (   0.2500000   0.3434062  -0.4660287), wk =   0.0040000
        k(  237) = (   0.2500000   0.3434062  -0.3659583), wk =   0.0040000
        k(  238) = (   0.2500000   0.3434062  -0.2658879), wk =   0.0040000
        k(  239) = (   0.2500000   0.3434062  -0.1658175), wk =   0.0040000
        k(  240) = (   0.2500000   0.3434062  -0.0657471), wk =   0.0040000
        k(  241) = (   0.2500000   0.4434423   0.0317046), wk =   0.0040000
        k(  242) = (   0.2500000   0.4434423   0.1317750), wk =   0.0040000
        k(  243) = (   0.2500000   0.4434423   0.2318454), wk =   0.0040000
        k(  244) = (   0.2500000   0.4434423   0.3319158), wk =   0.0040000
        k(  245) = (   0.2500000   0.4434423   0.4319862), wk =   0.0040000
        k(  246) = (   0.2500000   0.4434423  -0.4686473), wk =   0.0040000
        k(  247) = (   0.2500000   0.4434423  -0.3685769), wk =   0.0040000
        k(  248) = (   0.2500000   0.4434423  -0.2685065), wk =   0.0040000
        k(  249) = (   0.2500000   0.4434423  -0.1684361), wk =   0.0040000
        k(  250) = (   0.2500000   0.4434423  -0.0683658), wk =   0.0040000
        k(  251) = (   0.2500000  -0.4568828   0.0552725), wk =   0.0040000
        k(  252) = (   0.2500000  -0.4568828   0.1553429), wk =   0.0040000
        k(  253) = (   0.2500000  -0.4568828   0.2554133), wk =   0.0040000
        k(  254) = (   0.2500000  -0.4568828   0.3554837), wk =   0.0040000
        k(  255) = (   0.2500000  -0.4568828   0.4555541), wk =   0.0040000
        k(  256) = (   0.2500000  -0.4568828  -0.4450795), wk =   0.0040000
        k(  257) = (   0.2500000  -0.4568828  -0.3450091), wk =   0.0040000
        k(  258) = (   0.2500000  -0.4568828  -0.2449387), wk =   0.0040000
        k(  259) = (   0.2500000  -0.4568828  -0.1448683), wk =   0.0040000
        k(  260) = (   0.2500000  -0.4568828  -0.0447979), wk =   0.0040000
        k(  261) = (   0.2500000  -0.3568467   0.0526538), wk =   0.0040000
        k(  262) = (   0.2500000  -0.3568467   0.1527242), wk =   0.0040000
        k(  263) = (   0.2500000  -0.3568467   0.2527946), wk =   0.0040000
        k(  264) = (   0.2500000  -0.3568467   0.3528650), wk =   0.0040000
        k(  265) = (   0.2500000  -0.3568467   0.4529354), wk =   0.0040000
        k(  266) = (   0.2500000  -0.3568467  -0.4476981), wk =   0.0040000
        k(  267) = (   0.2500000  -0.3568467  -0.3476277), wk =   0.0040000
        k(  268) = (   0.2500000  -0.3568467  -0.2475573), wk =   0.0040000
        k(  269) = (   0.2500000  -0.3568467  -0.1474869), wk =   0.0040000
        k(  270) = (   0.2500000  -0.3568467  -0.0474165), wk =   0.0040000
        k(  271) = (   0.2500000  -0.2568105   0.0500352), wk =   0.0040000
        k(  272) = (   0.2500000  -0.2568105   0.1501056), wk =   0.0040000
        k(  273) = (   0.2500000  -0.2568105   0.2501760), wk =   0.0040000
        k(  274) = (   0.2500000  -0.2568105   0.3502464), wk =   0.0040000
        k(  275) = (   0.2500000  -0.2568105   0.4503168), wk =   0.0040000
        k(  276) = (   0.2500000  -0.2568105  -0.4503168), wk =   0.0040000
        k(  277) = (   0.2500000  -0.2568105  -0.3502464), wk =   0.0040000
        k(  278) = (   0.2500000  -0.2568105  -0.2501760), wk =   0.0040000
        k(  279) = (   0.2500000  -0.2568105  -0.1501056), wk =   0.0040000
        k(  280) = (   0.2500000  -0.2568105  -0.0500352), wk =   0.0040000
        k(  281) = (   0.2500000  -0.1567744   0.0474165), wk =   0.0040000
        k(  282) = (   0.2500000  -0.1567744   0.1474869), wk =   0.0040000
        k(  283) = (   0.2500000  -0.1567744   0.2475573), wk =   0.0040000
        k(  284) = (   0.2500000  -0.1567744   0.3476277), wk =   0.0040000
        k(  285) = (   0.2500000  -0.1567744   0.4476981), wk =   0.0040000
        k(  286) = (   0.2500000  -0.1567744  -0.4529354), wk =   0.0040000
        k(  287) = (   0.2500000  -0.1567744  -0.3528650), wk =   0.0040000
        k(  288) = (   0.2500000  -0.1567744  -0.2527946), wk =   0.0040000
        k(  289) = (   0.2500000  -0.1567744  -0.1527242), wk =   0.0040000
        k(  290) = (   0.2500000  -0.1567744  -0.0526538), wk =   0.0040000
        k(  291) = (   0.2500000  -0.0567383   0.0447979), wk =   0.0040000
        k(  292) = (   0.2500000  -0.0567383   0.1448683), wk =   0.0040000
        k(  293) = (   0.2500000  -0.0567383   0.2449387), wk =   0.0040000
        k(  294) = (   0.2500000  -0.0567383   0.3450091), wk =   0.0040000
        k(  295) = (   0.2500000  -0.0567383   0.4450795), wk =   0.0040000
        k(  296) = (   0.2500000  -0.0567383  -0.4555541), wk =   0.0040000
        k(  297) = (   0.2500000  -0.0567383  -0.3554837), wk =   0.0040000
        k(  298) = (   0.2500000  -0.0567383  -0.2554133), wk =   0.0040000
        k(  299) = (   0.2500000  -0.0567383  -0.1553429), wk =   0.0040000
        k(  300) = (   0.2500000  -0.0567383  -0.0552725), wk =   0.0040000
        k(  301) = (   0.3500000   0.0406097   0.0395606), wk =   0.0040000
        k(  302) = (   0.3500000   0.0406097   0.1396310), wk =   0.0040000
        k(  303) = (   0.3500000   0.0406097   0.2397014), wk =   0.0040000
        k(  304) = (   0.3500000   0.0406097   0.3397718), wk =   0.0040000
        k(  305) = (   0.3500000   0.0406097   0.4398422), wk =   0.0040000
        k(  306) = (   0.3500000   0.0406097  -0.4607914), wk =   0.0040000
        k(  307) = (   0.3500000   0.0406097  -0.3607210), wk =   0.0040000
        k(  308) = (   0.3500000   0.0406097  -0.2606506), wk =   0.0040000
        k(  309) = (   0.3500000   0.0406097  -0.1605802), wk =   0.0040000
        k(  310) = (   0.3500000   0.0406097  -0.0605098), wk =   0.0040000
        k(  311) = (   0.3500000   0.1406458   0.0369419), wk =   0.0040000
        k(  312) = (   0.3500000   0.1406458   0.1370123), wk =   0.0040000
        k(  313) = (   0.3500000   0.1406458   0.2370827), wk =   0.0040000
        k(  314) = (   0.3500000   0.1406458   0.3371531), wk =   0.0040000
        k(  315) = (   0.3500000   0.1406458   0.4372235), wk =   0.0040000
        k(  316) = (   0.3500000   0.1406458  -0.4634100), wk =   0.0040000
        k(  317) = (   0.3500000   0.1406458  -0.3633396), wk =   0.0040000
        k(  318) = (   0.3500000   0.1406458  -0.2632692), wk =   0.0040000
        k(  319) = (   0.3500000   0.1406458  -0.1631988), wk =   0.0040000
        k(  320) = (   0.3500000   0.1406458  -0.0631285), wk =   0.0040000
        k(  321) = (   0.3500000   0.2406820   0.0343233), wk =   0.0040000
        k(  322) = (   0.3500000   0.2406820   0.1343937), wk =   0.0040000
        k(  323) = (   0.3500000   0.2406820   0.2344641), wk =   0.0040000
        k(  324) = (   0.3500000   0.2406820   0.3345345), wk =   0.0040000
        k(  325) = (   0.3500000   0.2406820   0.4346049), wk =   0.0040000
        k(  326) = (   0.3500000   0.2406820  -0.4660287), wk =   0.0040000
        k(  327) = (   0.3500000   0.2406820  -0.3659583), wk =   0.0040000
        k(  328) = (   0.3500000   0.2406820  -0.2658879), wk =   0.0040000
        k(  329) = (   0.3500000   0.2406820  -0.1658175), wk =   0.0040000
        k(  330) = (   0.3500000   0.2406820  -0.0657471), wk =   0.0040000
        k(  331) = (   0.3500000   0.3407181   0.0317046), wk =   0.0040000
        k(  332) = (   0.3500000   0.3407181   0.1317750), wk =   0.0040000
        k(  333) = (   0.3500000   0.3407181   0.2318454), wk =   0.0040000
        k(  334) = (   0.3500000   0.3407181   0.3319158), wk =   0.0040000
        k(  335) = (   0.3500000   0.3407181   0.4319862), wk =   0.0040000
        k(  336) = (   0.3500000   0.3407181  -0.4686473), wk =   0.0040000
        k(  337) = (   0.3500000   0.3407181  -0.3685769), wk =   0.0040000
        k(  338) = (   0.3500000   0.3407181  -0.2685065), wk =   0.0040000
        k(  339) = (   0.3500000   0.3407181  -0.1684361), wk =   0.0040000
        k(  340) = (   0.3500000   0.3407181  -0.0683658), wk =   0.0040000
        k(  341) = (   0.3500000   0.4407542   0.0290860), wk =   0.0040000
        k(  342) = (   0.3500000   0.4407542   0.1291564), wk =   0.0040000
        k(  343) = (   0.3500000   0.4407542   0.2292268), wk =   0.0040000
        k(  344) = (   0.3500000   0.4407542   0.3292972), wk =   0.0040000
        k(  345) = (   0.3500000   0.4407542   0.4293676), wk =   0.0040000
        k(  346) = (   0.3500000   0.4407542  -0.4712660), wk =   0.0040000
        k(  347) = (   0.3500000   0.4407542  -0.3711956), wk =   0.0040000
        k(  348) = (   0.3500000   0.4407542  -0.2711252), wk =   0.0040000
        k(  349) = (   0.3500000   0.4407542  -0.1710548), wk =   0.0040000
        k(  350) = (   0.3500000   0.4407542  -0.0709844), wk =   0.0040000
        k(  351) = (   0.3500000  -0.4595709   0.0526538), wk =   0.0040000
        k(  352) = (   0.3500000  -0.4595709   0.1527242), wk =   0.0040000
        k(  353) = (   0.3500000  -0.4595709   0.2527946), wk =   0.0040000
        k(  354) = (   0.3500000  -0.4595709   0.3528650), wk =   0.0040000
        k(  355) = (   0.3500000  -0.4595709   0.4529354), wk =   0.0040000
        k(  356) = (   0.3500000  -0.4595709  -0.4476981), wk =   0.0040000
        k(  357) = (   0.3500000  -0.4595709  -0.3476277), wk =   0.0040000
        k(  358) = (   0.3500000  -0.4595709  -0.2475573), wk =   0.0040000
        k(  359) = (   0.3500000  -0.4595709  -0.1474869), wk =   0.0040000
        k(  360) = (   0.3500000  -0.4595709  -0.0474165), wk =   0.0040000
        k(  361) = (   0.3500000  -0.3595348   0.0500352), wk =   0.0040000
        k(  362) = (   0.3500000  -0.3595348   0.1501056), wk =   0.0040000
        k(  363) = (   0.3500000  -0.3595348   0.2501760), wk =   0.0040000
        k(  364) = (   0.3500000  -0.3595348   0.3502464), wk =   0.0040000
        k(  365) = (   0.3500000  -0.3595348   0.4503168), wk =   0.0040000
        k(  366) = (   0.3500000  -0.3595348  -0.4503168), wk =   0.0040000
        k(  367) = (   0.3500000  -0.3595348  -0.3502464), wk =   0.0040000
        k(  368) = (   0.3500000  -0.3595348  -0.2501760), wk =   0.0040000
        k(  369) = (   0.3500000  -0.3595348  -0.1501056), wk =   0.0040000
        k(  370) = (   0.3500000  -0.3595348  -0.0500352), wk =   0.0040000
        k(  371) = (   0.3500000  -0.2594986   0.0474165), wk =   0.0040000
        k(  372) = (   0.3500000  -0.2594986   0.1474869), wk =   0.0040000
        k(  373) = (   0.3500000  -0.2594986   0.2475573), wk =   0.0040000
        k(  374) = (   0.3500000  -0.2594986   0.3476277), wk =   0.0040000
        k(  375) = (   0.3500000  -0.2594986   0.4476981), wk =   0.0040000
        k(  376) = (   0.3500000  -0.2594986  -0.4529354), wk =   0.0040000
        k(  377) = (   0.3500000  -0.2594986  -0.3528650), wk =   0.0040000
        k(  378) = (   0.3500000  -0.2594986  -0.2527946), wk =   0.0040000
        k(  379) = (   0.3500000  -0.2594986  -0.1527242), wk =   0.0040000
        k(  380) = (   0.3500000  -0.2594986  -0.0526538), wk =   0.0040000
        k(  381) = (   0.3500000  -0.1594625   0.0447979), wk =   0.0040000
        k(  382) = (   0.3500000  -0.1594625   0.1448683), wk =   0.0040000
        k(  383) = (   0.3500000  -0.1594625   0.2449387), wk =   0.0040000
        k(  384) = (   0.3500000  -0.1594625   0.3450091), wk =   0.0040000
        k(  385) = (   0.3500000  -0.1594625   0.4450795), wk =   0.0040000
        k(  386) = (   0.3500000  -0.1594625  -0.4555541), wk =   0.0040000
        k(  387) = (   0.3500000  -0.1594625  -0.3554837), wk =   0.0040000
        k(  388) = (   0.3500000  -0.1594625  -0.2554133), wk =   0.0040000
        k(  389) = (   0.3500000  -0.1594625  -0.1553429), wk =   0.0040000
        k(  390) = (   0.3500000  -0.1594625  -0.0552725), wk =   0.0040000
        k(  391) = (   0.3500000  -0.0594264   0.0421792), wk =   0.0040000
        k(  392) = (   0.3500000  -0.0594264   0.1422496), wk =   0.0040000
        k(  393) = (   0.3500000  -0.0594264   0.2423200), wk =   0.0040000
        k(  394) = (   0.3500000  -0.0594264   0.3423904), wk =   0.0040000
        k(  395) = (   0.3500000  -0.0594264   0.4424608), wk =   0.0040000
        k(  396) = (   0.3500000  -0.0594264  -0.4581727), wk =   0.0040000
        k(  397) = (   0.3500000  -0.0594264  -0.3581023), wk =   0.0040000
        k(  398) = (   0.3500000  -0.0594264  -0.2580319), wk =   0.0040000
        k(  399) = (   0.3500000  -0.0594264  -0.1579615), wk =   0.0040000
        k(  400) = (   0.3500000  -0.0594264  -0.0578911), wk =   0.0040000
        k(  401) = (   0.4500000   0.0379216   0.0369419), wk =   0.0040000
        k(  402) = (   0.4500000   0.0379216   0.1370123), wk =   0.0040000
        k(  403) = (   0.4500000   0.0379216   0.2370827), wk =   0.0040000
        k(  404) = (   0.4500000   0.0379216   0.3371531), wk =   0.0040000
        k(  405) = (   0.4500000   0.0379216   0.4372235), wk =   0.0040000
        k(  406) = (   0.4500000   0.0379216  -0.4634100), wk =   0.0040000
        k(  407) = (   0.4500000   0.0379216  -0.3633396), wk =   0.0040000
        k(  408) = (   0.4500000   0.0379216  -0.2632692), wk =   0.0040000
        k(  409) = (   0.4500000   0.0379216  -0.1631988), wk =   0.0040000
        k(  410) = (   0.4500000   0.0379216  -0.0631285), wk =   0.0040000
        k(  411) = (   0.4500000   0.1379577   0.0343233), wk =   0.0040000
        k(  412) = (   0.4500000   0.1379577   0.1343937), wk =   0.0040000
        k(  413) = (   0.4500000   0.1379577   0.2344641), wk =   0.0040000
        k(  414) = (   0.4500000   0.1379577   0.3345345), wk =   0.0040000
        k(  415) = (   0.4500000   0.1379577   0.4346049), wk =   0.0040000
        k(  416) = (   0.4500000   0.1379577  -0.4660287), wk =   0.0040000
        k(  417) = (   0.4500000   0.1379577  -0.3659583), wk =   0.0040000
        k(  418) = (   0.4500000   0.1379577  -0.2658879), wk =   0.0040000
        k(  419) = (   0.4500000   0.1379577  -0.1658175), wk =   0.0040000
        k(  420) = (   0.4500000   0.1379577  -0.0657471), wk =   0.0040000
        k(  421) = (   0.4500000   0.2379939   0.0317046), wk =   0.0040000
        k(  422) = (   0.4500000   0.2379939   0.1317750), wk =   0.0040000
        k(  423) = (   0.4500000   0.2379939   0.2318454), wk =   0.0040000
        k(  424) = (   0.4500000   0.2379939   0.3319158), wk =   0.0040000
        k(  425) = (   0.4500000   0.2379939   0.4319862), wk =   0.0040000
        k(  426) = (   0.4500000   0.2379939  -0.4686473), wk =   0.0040000
        k(  427) = (   0.4500000   0.2379939  -0.3685769), wk =   0.0040000
        k(  428) = (   0.4500000   0.2379939  -0.2685065), wk =   0.0040000
        k(  429) = (   0.4500000   0.2379939  -0.1684361), wk =   0.0040000
        k(  430) = (   0.4500000   0.2379939  -0.0683658), wk =   0.0040000
        k(  431) = (   0.4500000   0.3380300   0.0290860), wk =   0.0040000
        k(  432) = (   0.4500000   0.3380300   0.1291564), wk =   0.0040000
        k(  433) = (   0.4500000   0.3380300   0.2292268), wk =   0.0040000
        k(  434) = (   0.4500000   0.3380300   0.3292972), wk =   0.0040000
        k(  435) = (   0.4500000   0.3380300   0.4293676), wk =   0.0040000
        k(  436) = (   0.4500000   0.3380300  -0.4712660), wk =   0.0040000
        k(  437) = (   0.4500000   0.3380300  -0.3711956), wk =   0.0040000
        k(  438) = (   0.4500000   0.3380300  -0.2711252), wk =   0.0040000
        k(  439) = (   0.4500000   0.3380300  -0.1710548), wk =   0.0040000
        k(  440) = (   0.4500000   0.3380300  -0.0709844), wk =   0.0040000
        k(  441) = (   0.4500000   0.4380661   0.0264673), wk =   0.0040000
        k(  442) = (   0.4500000   0.4380661   0.1265377), wk =   0.0040000
        k(  443) = (   0.4500000   0.4380661   0.2266081), wk =   0.0040000
        k(  444) = (   0.4500000   0.4380661   0.3266785), wk =   0.0040000
        k(  445) = (   0.4500000   0.4380661   0.4267489), wk =   0.0040000
        k(  446) = (   0.4500000   0.4380661  -0.4738846), wk =   0.0040000
        k(  447) = (   0.4500000   0.4380661  -0.3738142), wk =   0.0040000
        k(  448) = (   0.4500000   0.4380661  -0.2737438), wk =   0.0040000
        k(  449) = (   0.4500000   0.4380661  -0.1736734), wk =   0.0040000
        k(  450) = (   0.4500000   0.4380661  -0.0736031), wk =   0.0040000
        k(  451) = (   0.4500000  -0.4622590   0.0500352), wk =   0.0040000
        k(  452) = (   0.4500000  -0.4622590   0.1501056), wk =   0.0040000
        k(  453) = (   0.4500000  -0.4622590   0.2501760), wk =   0.0040000
        k(  454) = (   0.4500000  -0.4622590   0.3502464), wk =   0.0040000
        k(  455) = (   0.4500000  -0.4622590   0.4503168), wk =   0.0040000
        k(  456) = (   0.4500000  -0.4622590  -0.4503168), wk =   0.0040000
        k(  457) = (   0.4500000  -0.4622590  -0.3502464), wk =   0.0040000
        k(  458) = (   0.4500000  -0.4622590  -0.2501760), wk =   0.0040000
        k(  459) = (   0.4500000  -0.4622590  -0.1501056), wk =   0.0040000
        k(  460) = (   0.4500000  -0.4622590  -0.0500352), wk =   0.0040000
        k(  461) = (   0.4500000  -0.3622229   0.0474165), wk =   0.0040000
        k(  462) = (   0.4500000  -0.3622229   0.1474869), wk =   0.0040000
        k(  463) = (   0.4500000  -0.3622229   0.2475573), wk =   0.0040000
        k(  464) = (   0.4500000  -0.3622229   0.3476277), wk =   0.0040000
        k(  465) = (   0.4500000  -0.3622229   0.4476981), wk =   0.0040000
        k(  466) = (   0.4500000  -0.3622229  -0.4529354), wk =   0.0040000
        k(  467) = (   0.4500000  -0.3622229  -0.3528650), wk =   0.0040000
        k(  468) = (   0.4500000  -0.3622229  -0.2527946), wk =   0.0040000
        k(  469) = (   0.4500000  -0.3622229  -0.1527242), wk =   0.0040000
        k(  470) = (   0.4500000  -0.3622229  -0.0526538), wk =   0.0040000
        k(  471) = (   0.4500000  -0.2621867   0.0447979), wk =   0.0040000
        k(  472) = (   0.4500000  -0.2621867   0.1448683), wk =   0.0040000
        k(  473) = (   0.4500000  -0.2621867   0.2449387), wk =   0.0040000
        k(  474) = (   0.4500000  -0.2621867   0.3450091), wk =   0.0040000
        k(  475) = (   0.4500000  -0.2621867   0.4450795), wk =   0.0040000
        k(  476) = (   0.4500000  -0.2621867  -0.4555541), wk =   0.0040000
        k(  477) = (   0.4500000  -0.2621867  -0.3554837), wk =   0.0040000
        k(  478) = (   0.4500000  -0.2621867  -0.2554133), wk =   0.0040000
        k(  479) = (   0.4500000  -0.2621867  -0.1553429), wk =   0.0040000
        k(  480) = (   0.4500000  -0.2621867  -0.0552725), wk =   0.0040000
        k(  481) = (   0.4500000  -0.1621506   0.0421792), wk =   0.0040000
        k(  482) = (   0.4500000  -0.1621506   0.1422496), wk =   0.0040000
        k(  483) = (   0.4500000  -0.1621506   0.2423200), wk =   0.0040000
        k(  484) = (   0.4500000  -0.1621506   0.3423904), wk =   0.0040000
        k(  485) = (   0.4500000  -0.1621506   0.4424608), wk =   0.0040000
        k(  486) = (   0.4500000  -0.1621506  -0.4581727), wk =   0.0040000
        k(  487) = (   0.4500000  -0.1621506  -0.3581023), wk =   0.0040000
        k(  488) = (   0.4500000  -0.1621506  -0.2580319), wk =   0.0040000
        k(  489) = (   0.4500000  -0.1621506  -0.1579615), wk =   0.0040000
        k(  490) = (   0.4500000  -0.1621506  -0.0578911), wk =   0.0040000
        k(  491) = (   0.4500000  -0.0621145   0.0395606), wk =   0.0040000
        k(  492) = (   0.4500000  -0.0621145   0.1396310), wk =   0.0040000
        k(  493) = (   0.4500000  -0.0621145   0.2397014), wk =   0.0040000
        k(  494) = (   0.4500000  -0.0621145   0.3397718), wk =   0.0040000
        k(  495) = (   0.4500000  -0.0621145   0.4398422), wk =   0.0040000
        k(  496) = (   0.4500000  -0.0621145  -0.4607914), wk =   0.0040000
        k(  497) = (   0.4500000  -0.0621145  -0.3607210), wk =   0.0040000
        k(  498) = (   0.4500000  -0.0621145  -0.2606506), wk =   0.0040000
        k(  499) = (   0.4500000  -0.0621145  -0.1605802), wk =   0.0040000
        k(  500) = (   0.4500000  -0.0621145  -0.0605098), wk =   0.0040000

                       cryst. coord.
        k(    1) = (   0.0500000   0.0500000   0.0500000), wk =   0.0040000
        k(    2) = (   0.0500000   0.0500000   0.1500000), wk =   0.0040000
        k(    3) = (   0.0500000   0.0500000   0.2500000), wk =   0.0040000
        k(    4) = (   0.0500000   0.0500000   0.3500000), wk =   0.0040000
        k(    5) = (   0.0500000   0.0500000   0.4500000), wk =   0.0040000
        k(    6) = (   0.0500000   0.0500000  -0.4500000), wk =   0.0040000
        k(    7) = (   0.0500000   0.0500000  -0.3500000), wk =   0.0040000
        k(    8) = (   0.0500000   0.0500000  -0.2500000), wk =   0.0040000
        k(    9) = (   0.0500000   0.0500000  -0.1500000), wk =   0.0040000
        k(   10) = (   0.0500000   0.0500000  -0.0500000), wk =   0.0040000
        k(   11) = (   0.0500000   0.1500000   0.0500000), wk =   0.0040000
        k(   12) = (   0.0500000   0.1500000   0.1500000), wk =   0.0040000
        k(   13) = (   0.0500000   0.1500000   0.2500000), wk =   0.0040000
        k(   14) = (   0.0500000   0.1500000   0.3500000), wk =   0.0040000
        k(   15) = (   0.0500000   0.1500000   0.4500000), wk =   0.0040000
        k(   16) = (   0.0500000   0.1500000  -0.4500000), wk =   0.0040000
        k(   17) = (   0.0500000   0.1500000  -0.3500000), wk =   0.0040000
        k(   18) = (   0.0500000   0.1500000  -0.2500000), wk =   0.0040000
        k(   19) = (   0.0500000   0.1500000  -0.1500000), wk =   0.0040000
        k(   20) = (   0.0500000   0.1500000  -0.0500000), wk =   0.0040000
        k(   21) = (   0.0500000   0.2500000   0.0500000), wk =   0.0040000
        k(   22) = (   0.0500000   0.2500000   0.1500000), wk =   0.0040000
        k(   23) = (   0.0500000   0.2500000   0.2500000), wk =   0.0040000
        k(   24) = (   0.0500000   0.2500000   0.3500000), wk =   0.0040000
        k(   25) = (   0.0500000   0.2500000   0.4500000), wk =   0.0040000
        k(   26) = (   0.0500000   0.2500000  -0.4500000), wk =   0.0040000
        k(   27) = (   0.0500000   0.2500000  -0.3500000), wk =   0.0040000
        k(   28) = (   0.0500000   0.2500000  -0.2500000), wk =   0.0040000
        k(   29) = (   0.0500000   0.2500000  -0.1500000), wk =   0.0040000
        k(   30) = (   0.0500000   0.2500000  -0.0500000), wk =   0.0040000
        k(   31) = (   0.0500000   0.3500000   0.0500000), wk =   0.0040000
        k(   32) = (   0.0500000   0.3500000   0.1500000), wk =   0.0040000
        k(   33) = (   0.0500000   0.3500000   0.2500000), wk =   0.0040000
        k(   34) = (   0.0500000   0.3500000   0.3500000), wk =   0.0040000
        k(   35) = (   0.0500000   0.3500000   0.4500000), wk =   0.0040000
        k(   36) = (   0.0500000   0.3500000  -0.4500000), wk =   0.0040000
        k(   37) = (   0.0500000   0.3500000  -0.3500000), wk =   0.0040000
        k(   38) = (   0.0500000   0.3500000  -0.2500000), wk =   0.0040000
        k(   39) = (   0.0500000   0.3500000  -0.1500000), wk =   0.0040000
        k(   40) = (   0.0500000   0.3500000  -0.0500000), wk =   0.0040000
        k(   41) = (   0.0500000   0.4500000   0.0500000), wk =   0.0040000
        k(   42) = (   0.0500000   0.4500000   0.1500000), wk =   0.0040000
        k(   43) = (   0.0500000   0.4500000   0.2500000), wk =   0.0040000
        k(   44) = (   0.0500000   0.4500000   0.3500000), wk =   0.0040000
        k(   45) = (   0.0500000   0.4500000   0.4500000), wk =   0.0040000
        k(   46) = (   0.0500000   0.4500000  -0.4500000), wk =   0.0040000
        k(   47) = (   0.0500000   0.4500000  -0.3500000), wk =   0.0040000
        k(   48) = (   0.0500000   0.4500000  -0.2500000), wk =   0.0040000
        k(   49) = (   0.0500000   0.4500000  -0.1500000), wk =   0.0040000
        k(   50) = (   0.0500000   0.4500000  -0.0500000), wk =   0.0040000
        k(   51) = (   0.0500000  -0.4500000   0.0500000), wk =   0.0040000
        k(   52) = (   0.0500000  -0.4500000   0.1500000), wk =   0.0040000
        k(   53) = (   0.0500000  -0.4500000   0.2500000), wk =   0.0040000
        k(   54) = (   0.0500000  -0.4500000   0.3500000), wk =   0.0040000
        k(   55) = (   0.0500000  -0.4500000   0.4500000), wk =   0.0040000
        k(   56) = (   0.0500000  -0.4500000  -0.4500000), wk =   0.0040000
        k(   57) = (   0.0500000  -0.4500000  -0.3500000), wk =   0.0040000
        k(   58) = (   0.0500000  -0.4500000  -0.2500000), wk =   0.0040000
        k(   59) = (   0.0500000  -0.4500000  -0.1500000), wk =   0.0040000
        k(   60) = (   0.0500000  -0.4500000  -0.0500000), wk =   0.0040000
        k(   61) = (   0.0500000  -0.3500000   0.0500000), wk =   0.0040000
        k(   62) = (   0.0500000  -0.3500000   0.1500000), wk =   0.0040000
        k(   63) = (   0.0500000  -0.3500000   0.2500000), wk =   0.0040000
        k(   64) = (   0.0500000  -0.3500000   0.3500000), wk =   0.0040000
        k(   65) = (   0.0500000  -0.3500000   0.4500000), wk =   0.0040000
        k(   66) = (   0.0500000  -0.3500000  -0.4500000), wk =   0.0040000
        k(   67) = (   0.0500000  -0.3500000  -0.3500000), wk =   0.0040000
        k(   68) = (   0.0500000  -0.3500000  -0.2500000), wk =   0.0040000
        k(   69) = (   0.0500000  -0.3500000  -0.1500000), wk =   0.0040000
        k(   70) = (   0.0500000  -0.3500000  -0.0500000), wk =   0.0040000
        k(   71) = (   0.0500000  -0.2500000   0.0500000), wk =   0.0040000
        k(   72) = (   0.0500000  -0.2500000   0.1500000), wk =   0.0040000
        k(   73) = (   0.0500000  -0.2500000   0.2500000), wk =   0.0040000
        k(   74) = (   0.0500000  -0.2500000   0.3500000), wk =   0.0040000
        k(   75) = (   0.0500000  -0.2500000   0.4500000), wk =   0.0040000
        k(   76) = (   0.0500000  -0.2500000  -0.4500000), wk =   0.0040000
        k(   77) = (   0.0500000  -0.2500000  -0.3500000), wk =   0.0040000
        k(   78) = (   0.0500000  -0.2500000  -0.2500000), wk =   0.0040000
        k(   79) = (   0.0500000  -0.2500000  -0.1500000), wk =   0.0040000
        k(   80) = (   0.0500000  -0.2500000  -0.0500000), wk =   0.0040000
        k(   81) = (   0.0500000  -0.1500000   0.0500000), wk =   0.0040000
        k(   82) = (   0.0500000  -0.1500000   0.1500000), wk =   0.0040000
        k(   83) = (   0.0500000  -0.1500000   0.2500000), wk =   0.0040000
        k(   84) = (   0.0500000  -0.1500000   0.3500000), wk =   0.0040000
        k(   85) = (   0.0500000  -0.1500000   0.4500000), wk =   0.0040000
        k(   86) = (   0.0500000  -0.1500000  -0.4500000), wk =   0.0040000
        k(   87) = (   0.0500000  -0.1500000  -0.3500000), wk =   0.0040000
        k(   88) = (   0.0500000  -0.1500000  -0.2500000), wk =   0.0040000
        k(   89) = (   0.0500000  -0.1500000  -0.1500000), wk =   0.0040000
        k(   90) = (   0.0500000  -0.1500000  -0.0500000), wk =   0.0040000
        k(   91) = (   0.0500000  -0.0500000   0.0500000), wk =   0.0040000
        k(   92) = (   0.0500000  -0.0500000   0.1500000), wk =   0.0040000
        k(   93) = (   0.0500000  -0.0500000   0.2500000), wk =   0.0040000
        k(   94) = (   0.0500000  -0.0500000   0.3500000), wk =   0.0040000
        k(   95) = (   0.0500000  -0.0500000   0.4500000), wk =   0.0040000
        k(   96) = (   0.0500000  -0.0500000  -0.4500000), wk =   0.0040000
        k(   97) = (   0.0500000  -0.0500000  -0.3500000), wk =   0.0040000
        k(   98) = (   0.0500000  -0.0500000  -0.2500000), wk =   0.0040000
        k(   99) = (   0.0500000  -0.0500000  -0.1500000), wk =   0.0040000
        k(  100) = (   0.0500000  -0.0500000  -0.0500000), wk =   0.0040000
        k(  101) = (   0.1500000   0.0500000   0.0500000), wk =   0.0040000
        k(  102) = (   0.1500000   0.0500000   0.1500000), wk =   0.0040000
        k(  103) = (   0.1500000   0.0500000   0.2500000), wk =   0.0040000
        k(  104) = (   0.1500000   0.0500000   0.3500000), wk =   0.0040000
        k(  105) = (   0.1500000   0.0500000   0.4500000), wk =   0.0040000
        k(  106) = (   0.1500000   0.0500000  -0.4500000), wk =   0.0040000
        k(  107) = (   0.1500000   0.0500000  -0.3500000), wk =   0.0040000
        k(  108) = (   0.1500000   0.0500000  -0.2500000), wk =   0.0040000
        k(  109) = (   0.1500000   0.0500000  -0.1500000), wk =   0.0040000
        k(  110) = (   0.1500000   0.0500000  -0.0500000), wk =   0.0040000
        k(  111) = (   0.1500000   0.1500000   0.0500000), wk =   0.0040000
        k(  112) = (   0.1500000   0.1500000   0.1500000), wk =   0.0040000
        k(  113) = (   0.1500000   0.1500000   0.2500000), wk =   0.0040000
        k(  114) = (   0.1500000   0.1500000   0.3500000), wk =   0.0040000
        k(  115) = (   0.1500000   0.1500000   0.4500000), wk =   0.0040000
        k(  116) = (   0.1500000   0.1500000  -0.4500000), wk =   0.0040000
        k(  117) = (   0.1500000   0.1500000  -0.3500000), wk =   0.0040000
        k(  118) = (   0.1500000   0.1500000  -0.2500000), wk =   0.0040000
        k(  119) = (   0.1500000   0.1500000  -0.1500000), wk =   0.0040000
        k(  120) = (   0.1500000   0.1500000  -0.0500000), wk =   0.0040000
        k(  121) = (   0.1500000   0.2500000   0.0500000), wk =   0.0040000
        k(  122) = (   0.1500000   0.2500000   0.1500000), wk =   0.0040000
        k(  123) = (   0.1500000   0.2500000   0.2500000), wk =   0.0040000
        k(  124) = (   0.1500000   0.2500000   0.3500000), wk =   0.0040000
        k(  125) = (   0.1500000   0.2500000   0.4500000), wk =   0.0040000
        k(  126) = (   0.1500000   0.2500000  -0.4500000), wk =   0.0040000
        k(  127) = (   0.1500000   0.2500000  -0.3500000), wk =   0.0040000
        k(  128) = (   0.1500000   0.2500000  -0.2500000), wk =   0.0040000
        k(  129) = (   0.1500000   0.2500000  -0.1500000), wk =   0.0040000
        k(  130) = (   0.1500000   0.2500000  -0.0500000), wk =   0.0040000
        k(  131) = (   0.1500000   0.3500000   0.0500000), wk =   0.0040000
        k(  132) = (   0.1500000   0.3500000   0.1500000), wk =   0.0040000
        k(  133) = (   0.1500000   0.3500000   0.2500000), wk =   0.0040000
        k(  134) = (   0.1500000   0.3500000   0.3500000), wk =   0.0040000
        k(  135) = (   0.1500000   0.3500000   0.4500000), wk =   0.0040000
        k(  136) = (   0.1500000   0.3500000  -0.4500000), wk =   0.0040000
        k(  137) = (   0.1500000   0.3500000  -0.3500000), wk =   0.0040000
        k(  138) = (   0.1500000   0.3500000  -0.2500000), wk =   0.0040000
        k(  139) = (   0.1500000   0.3500000  -0.1500000), wk =   0.0040000
        k(  140) = (   0.1500000   0.3500000  -0.0500000), wk =   0.0040000
        k(  141) = (   0.1500000   0.4500000   0.0500000), wk =   0.0040000
        k(  142) = (   0.1500000   0.4500000   0.1500000), wk =   0.0040000
        k(  143) = (   0.1500000   0.4500000   0.2500000), wk =   0.0040000
        k(  144) = (   0.1500000   0.4500000   0.3500000), wk =   0.0040000
        k(  145) = (   0.1500000   0.4500000   0.4500000), wk =   0.0040000
        k(  146) = (   0.1500000   0.4500000  -0.4500000), wk =   0.0040000
        k(  147) = (   0.1500000   0.4500000  -0.3500000), wk =   0.0040000
        k(  148) = (   0.1500000   0.4500000  -0.2500000), wk =   0.0040000
        k(  149) = (   0.1500000   0.4500000  -0.1500000), wk =   0.0040000
        k(  150) = (   0.1500000   0.4500000  -0.0500000), wk =   0.0040000
        k(  151) = (   0.1500000  -0.4500000   0.0500000), wk =   0.0040000
        k(  152) = (   0.1500000  -0.4500000   0.1500000), wk =   0.0040000
        k(  153) = (   0.1500000  -0.4500000   0.2500000), wk =   0.0040000
        k(  154) = (   0.1500000  -0.4500000   0.3500000), wk =   0.0040000
        k(  155) = (   0.1500000  -0.4500000   0.4500000), wk =   0.0040000
        k(  156) = (   0.1500000  -0.4500000  -0.4500000), wk =   0.0040000
        k(  157) = (   0.1500000  -0.4500000  -0.3500000), wk =   0.0040000
        k(  158) = (   0.1500000  -0.4500000  -0.2500000), wk =   0.0040000
        k(  159) = (   0.1500000  -0.4500000  -0.1500000), wk =   0.0040000
        k(  160) = (   0.1500000  -0.4500000  -0.0500000), wk =   0.0040000
        k(  161) = (   0.1500000  -0.3500000   0.0500000), wk =   0.0040000
        k(  162) = (   0.1500000  -0.3500000   0.1500000), wk =   0.0040000
        k(  163) = (   0.1500000  -0.3500000   0.2500000), wk =   0.0040000
        k(  164) = (   0.1500000  -0.3500000   0.3500000), wk =   0.0040000
        k(  165) = (   0.1500000  -0.3500000   0.4500000), wk =   0.0040000
        k(  166) = (   0.1500000  -0.3500000  -0.4500000), wk =   0.0040000
        k(  167) = (   0.1500000  -0.3500000  -0.3500000), wk =   0.0040000
        k(  168) = (   0.1500000  -0.3500000  -0.2500000), wk =   0.0040000
        k(  169) = (   0.1500000  -0.3500000  -0.1500000), wk =   0.0040000
        k(  170) = (   0.1500000  -0.3500000  -0.0500000), wk =   0.0040000
        k(  171) = (   0.1500000  -0.2500000   0.0500000), wk =   0.0040000
        k(  172) = (   0.1500000  -0.2500000   0.1500000), wk =   0.0040000
        k(  173) = (   0.1500000  -0.2500000   0.2500000), wk =   0.0040000
        k(  174) = (   0.1500000  -0.2500000   0.3500000), wk =   0.0040000
        k(  175) = (   0.1500000  -0.2500000   0.4500000), wk =   0.0040000
        k(  176) = (   0.1500000  -0.2500000  -0.4500000), wk =   0.0040000
        k(  177) = (   0.1500000  -0.2500000  -0.3500000), wk =   0.0040000
        k(  178) = (   0.1500000  -0.2500000  -0.2500000), wk =   0.0040000
        k(  179) = (   0.1500000  -0.2500000  -0.1500000), wk =   0.0040000
        k(  180) = (   0.1500000  -0.2500000  -0.0500000), wk =   0.0040000
        k(  181) = (   0.1500000  -0.1500000   0.0500000), wk =   0.0040000
        k(  182) = (   0.1500000  -0.1500000   0.1500000), wk =   0.0040000
        k(  183) = (   0.1500000  -0.1500000   0.2500000), wk =   0.0040000
        k(  184) = (   0.1500000  -0.1500000   0.3500000), wk =   0.0040000
        k(  185) = (   0.1500000  -0.1500000   0.4500000), wk =   0.0040000
        k(  186) = (   0.1500000  -0.1500000  -0.4500000), wk =   0.0040000
        k(  187) = (   0.1500000  -0.1500000  -0.3500000), wk =   0.0040000
        k(  188) = (   0.1500000  -0.1500000  -0.2500000), wk =   0.0040000
        k(  189) = (   0.1500000  -0.1500000  -0.1500000), wk =   0.0040000
        k(  190) = (   0.1500000  -0.1500000  -0.0500000), wk =   0.0040000
        k(  191) = (   0.1500000  -0.0500000   0.0500000), wk =   0.0040000
        k(  192) = (   0.1500000  -0.0500000   0.1500000), wk =   0.0040000
        k(  193) = (   0.1500000  -0.0500000   0.2500000), wk =   0.0040000
        k(  194) = (   0.1500000  -0.0500000   0.3500000), wk =   0.0040000
        k(  195) = (   0.1500000  -0.0500000   0.4500000), wk =   0.0040000
        k(  196) = (   0.1500000  -0.0500000  -0.4500000), wk =   0.0040000
        k(  197) = (   0.1500000  -0.0500000  -0.3500000), wk =   0.0040000
        k(  198) = (   0.1500000  -0.0500000  -0.2500000), wk =   0.0040000
        k(  199) = (   0.1500000  -0.0500000  -0.1500000), wk =   0.0040000
        k(  200) = (   0.1500000  -0.0500000  -0.0500000), wk =   0.0040000
        k(  201) = (   0.2500000   0.0500000   0.0500000), wk =   0.0040000
        k(  202) = (   0.2500000   0.0500000   0.1500000), wk =   0.0040000
        k(  203) = (   0.2500000   0.0500000   0.2500000), wk =   0.0040000
        k(  204) = (   0.2500000   0.0500000   0.3500000), wk =   0.0040000
        k(  205) = (   0.2500000   0.0500000   0.4500000), wk =   0.0040000
        k(  206) = (   0.2500000   0.0500000  -0.4500000), wk =   0.0040000
        k(  207) = (   0.2500000   0.0500000  -0.3500000), wk =   0.0040000
        k(  208) = (   0.2500000   0.0500000  -0.2500000), wk =   0.0040000
        k(  209) = (   0.2500000   0.0500000  -0.1500000), wk =   0.0040000
        k(  210) = (   0.2500000   0.0500000  -0.0500000), wk =   0.0040000
        k(  211) = (   0.2500000   0.1500000   0.0500000), wk =   0.0040000
        k(  212) = (   0.2500000   0.1500000   0.1500000), wk =   0.0040000
        k(  213) = (   0.2500000   0.1500000   0.2500000), wk =   0.0040000
        k(  214) = (   0.2500000   0.1500000   0.3500000), wk =   0.0040000
        k(  215) = (   0.2500000   0.1500000   0.4500000), wk =   0.0040000
        k(  216) = (   0.2500000   0.1500000  -0.4500000), wk =   0.0040000
        k(  217) = (   0.2500000   0.1500000  -0.3500000), wk =   0.0040000
        k(  218) = (   0.2500000   0.1500000  -0.2500000), wk =   0.0040000
        k(  219) = (   0.2500000   0.1500000  -0.1500000), wk =   0.0040000
        k(  220) = (   0.2500000   0.1500000  -0.0500000), wk =   0.0040000
        k(  221) = (   0.2500000   0.2500000   0.0500000), wk =   0.0040000
        k(  222) = (   0.2500000   0.2500000   0.1500000), wk =   0.0040000
        k(  223) = (   0.2500000   0.2500000   0.2500000), wk =   0.0040000
        k(  224) = (   0.2500000   0.2500000   0.3500000), wk =   0.0040000
        k(  225) = (   0.2500000   0.2500000   0.4500000), wk =   0.0040000
        k(  226) = (   0.2500000   0.2500000  -0.4500000), wk =   0.0040000
        k(  227) = (   0.2500000   0.2500000  -0.3500000), wk =   0.0040000
        k(  228) = (   0.2500000   0.2500000  -0.2500000), wk =   0.0040000
        k(  229) = (   0.2500000   0.2500000  -0.1500000), wk =   0.0040000
        k(  230) = (   0.2500000   0.2500000  -0.0500000), wk =   0.0040000
        k(  231) = (   0.2500000   0.3500000   0.0500000), wk =   0.0040000
        k(  232) = (   0.2500000   0.3500000   0.1500000), wk =   0.0040000
        k(  233) = (   0.2500000   0.3500000   0.2500000), wk =   0.0040000
        k(  234) = (   0.2500000   0.3500000   0.3500000), wk =   0.0040000
        k(  235) = (   0.2500000   0.3500000   0.4500000), wk =   0.0040000
        k(  236) = (   0.2500000   0.3500000  -0.4500000), wk =   0.0040000
        k(  237) = (   0.2500000   0.3500000  -0.3500000), wk =   0.0040000
        k(  238) = (   0.2500000   0.3500000  -0.2500000), wk =   0.0040000
        k(  239) = (   0.2500000   0.3500000  -0.1500000), wk =   0.0040000
        k(  240) = (   0.2500000   0.3500000  -0.0500000), wk =   0.0040000
        k(  241) = (   0.2500000   0.4500000   0.0500000), wk =   0.0040000
        k(  242) = (   0.2500000   0.4500000   0.1500000), wk =   0.0040000
        k(  243) = (   0.2500000   0.4500000   0.2500000), wk =   0.0040000
        k(  244) = (   0.2500000   0.4500000   0.3500000), wk =   0.0040000
        k(  245) = (   0.2500000   0.4500000   0.4500000), wk =   0.0040000
        k(  246) = (   0.2500000   0.4500000  -0.4500000), wk =   0.0040000
        k(  247) = (   0.2500000   0.4500000  -0.3500000), wk =   0.0040000
        k(  248) = (   0.2500000   0.4500000  -0.2500000), wk =   0.0040000
        k(  249) = (   0.2500000   0.4500000  -0.1500000), wk =   0.0040000
        k(  250) = (   0.2500000   0.4500000  -0.0500000), wk =   0.0040000
        k(  251) = (   0.2500000  -0.4500000   0.0500000), wk =   0.0040000
        k(  252) = (   0.2500000  -0.4500000   0.1500000), wk =   0.0040000
        k(  253) = (   0.2500000  -0.4500000   0.2500000), wk =   0.0040000
        k(  254) = (   0.2500000  -0.4500000   0.3500000), wk =   0.0040000
        k(  255) = (   0.2500000  -0.4500000   0.4500000), wk =   0.0040000
        k(  256) = (   0.2500000  -0.4500000  -0.4500000), wk =   0.0040000
        k(  257) = (   0.2500000  -0.4500000  -0.3500000), wk =   0.0040000
        k(  258) = (   0.2500000  -0.4500000  -0.2500000), wk =   0.0040000
        k(  259) = (   0.2500000  -0.4500000  -0.1500000), wk =   0.0040000
        k(  260) = (   0.2500000  -0.4500000  -0.0500000), wk =   0.0040000
        k(  261) = (   0.2500000  -0.3500000   0.0500000), wk =   0.0040000
        k(  262) = (   0.2500000  -0.3500000   0.1500000), wk =   0.0040000
        k(  263) = (   0.2500000  -0.3500000   0.2500000), wk =   0.0040000
        k(  264) = (   0.2500000  -0.3500000   0.3500000), wk =   0.0040000
        k(  265) = (   0.2500000  -0.3500000   0.4500000), wk =   0.0040000
        k(  266) = (   0.2500000  -0.3500000  -0.4500000), wk =   0.0040000
        k(  267) = (   0.2500000  -0.3500000  -0.3500000), wk =   0.0040000
        k(  268) = (   0.2500000  -0.3500000  -0.2500000), wk =   0.0040000
        k(  269) = (   0.2500000  -0.3500000  -0.1500000), wk =   0.0040000
        k(  270) = (   0.2500000  -0.3500000  -0.0500000), wk =   0.0040000
        k(  271) = (   0.2500000  -0.2500000   0.0500000), wk =   0.0040000
        k(  272) = (   0.2500000  -0.2500000   0.1500000), wk =   0.0040000
        k(  273) = (   0.2500000  -0.2500000   0.2500000), wk =   0.0040000
        k(  274) = (   0.2500000  -0.2500000   0.3500000), wk =   0.0040000
        k(  275) = (   0.2500000  -0.2500000   0.4500000), wk =   0.0040000
        k(  276) = (   0.2500000  -0.2500000  -0.4500000), wk =   0.0040000
        k(  277) = (   0.2500000  -0.2500000  -0.3500000), wk =   0.0040000
        k(  278) = (   0.2500000  -0.2500000  -0.2500000), wk =   0.0040000
        k(  279) = (   0.2500000  -0.2500000  -0.1500000), wk =   0.0040000
        k(  280) = (   0.2500000  -0.2500000  -0.0500000), wk =   0.0040000
        k(  281) = (   0.2500000  -0.1500000   0.0500000), wk =   0.0040000
        k(  282) = (   0.2500000  -0.1500000   0.1500000), wk =   0.0040000
        k(  283) = (   0.2500000  -0.1500000   0.2500000), wk =   0.0040000
        k(  284) = (   0.2500000  -0.1500000   0.3500000), wk =   0.0040000
        k(  285) = (   0.2500000  -0.1500000   0.4500000), wk =   0.0040000
        k(  286) = (   0.2500000  -0.1500000  -0.4500000), wk =   0.0040000
        k(  287) = (   0.2500000  -0.1500000  -0.3500000), wk =   0.0040000
        k(  288) = (   0.2500000  -0.1500000  -0.2500000), wk =   0.0040000
        k(  289) = (   0.2500000  -0.1500000  -0.1500000), wk =   0.0040000
        k(  290) = (   0.2500000  -0.1500000  -0.0500000), wk =   0.0040000
        k(  291) = (   0.2500000  -0.0500000   0.0500000), wk =   0.0040000
        k(  292) = (   0.2500000  -0.0500000   0.1500000), wk =   0.0040000
        k(  293) = (   0.2500000  -0.0500000   0.2500000), wk =   0.0040000
        k(  294) = (   0.2500000  -0.0500000   0.3500000), wk =   0.0040000
        k(  295) = (   0.2500000  -0.0500000   0.4500000), wk =   0.0040000
        k(  296) = (   0.2500000  -0.0500000  -0.4500000), wk =   0.0040000
        k(  297) = (   0.2500000  -0.0500000  -0.3500000), wk =   0.0040000
        k(  298) = (   0.2500000  -0.0500000  -0.2500000), wk =   0.0040000
        k(  299) = (   0.2500000  -0.0500000  -0.1500000), wk =   0.0040000
        k(  300) = (   0.2500000  -0.0500000  -0.0500000), wk =   0.0040000
        k(  301) = (   0.3500000   0.0500000   0.0500000), wk =   0.0040000
        k(  302) = (   0.3500000   0.0500000   0.1500000), wk =   0.0040000
        k(  303) = (   0.3500000   0.0500000   0.2500000), wk =   0.0040000
        k(  304) = (   0.3500000   0.0500000   0.3500000), wk =   0.0040000
        k(  305) = (   0.3500000   0.0500000   0.4500000), wk =   0.0040000
        k(  306) = (   0.3500000   0.0500000  -0.4500000), wk =   0.0040000
        k(  307) = (   0.3500000   0.0500000  -0.3500000), wk =   0.0040000
        k(  308) = (   0.3500000   0.0500000  -0.2500000), wk =   0.0040000
        k(  309) = (   0.3500000   0.0500000  -0.1500000), wk =   0.0040000
        k(  310) = (   0.3500000   0.0500000  -0.0500000), wk =   0.0040000
        k(  311) = (   0.3500000   0.1500000   0.0500000), wk =   0.0040000
        k(  312) = (   0.3500000   0.1500000   0.1500000), wk =   0.0040000
        k(  313) = (   0.3500000   0.1500000   0.2500000), wk =   0.0040000
        k(  314) = (   0.3500000   0.1500000   0.3500000), wk =   0.0040000
        k(  315) = (   0.3500000   0.1500000   0.4500000), wk =   0.0040000
        k(  316) = (   0.3500000   0.1500000  -0.4500000), wk =   0.0040000
        k(  317) = (   0.3500000   0.1500000  -0.3500000), wk =   0.0040000
        k(  318) = (   0.3500000   0.1500000  -0.2500000), wk =   0.0040000
        k(  319) = (   0.3500000   0.1500000  -0.1500000), wk =   0.0040000
        k(  320) = (   0.3500000   0.1500000  -0.0500000), wk =   0.0040000
        k(  321) = (   0.3500000   0.2500000   0.0500000), wk =   0.0040000
        k(  322) = (   0.3500000   0.2500000   0.1500000), wk =   0.0040000
        k(  323) = (   0.3500000   0.2500000   0.2500000), wk =   0.0040000
        k(  324) = (   0.3500000   0.2500000   0.3500000), wk =   0.0040000
        k(  325) = (   0.3500000   0.2500000   0.4500000), wk =   0.0040000
        k(  326) = (   0.3500000   0.2500000  -0.4500000), wk =   0.0040000
        k(  327) = (   0.3500000   0.2500000  -0.3500000), wk =   0.0040000
        k(  328) = (   0.3500000   0.2500000  -0.2500000), wk =   0.0040000
        k(  329) = (   0.3500000   0.2500000  -0.1500000), wk =   0.0040000
        k(  330) = (   0.3500000   0.2500000  -0.0500000), wk =   0.0040000
        k(  331) = (   0.3500000   0.3500000   0.0500000), wk =   0.0040000
        k(  332) = (   0.3500000   0.3500000   0.1500000), wk =   0.0040000
        k(  333) = (   0.3500000   0.3500000   0.2500000), wk =   0.0040000
        k(  334) = (   0.3500000   0.3500000   0.3500000), wk =   0.0040000
        k(  335) = (   0.3500000   0.3500000   0.4500000), wk =   0.0040000
        k(  336) = (   0.3500000   0.3500000  -0.4500000), wk =   0.0040000
        k(  337) = (   0.3500000   0.3500000  -0.3500000), wk =   0.0040000
        k(  338) = (   0.3500000   0.3500000  -0.2500000), wk =   0.0040000
        k(  339) = (   0.3500000   0.3500000  -0.1500000), wk =   0.0040000
        k(  340) = (   0.3500000   0.3500000  -0.0500000), wk =   0.0040000
        k(  341) = (   0.3500000   0.4500000   0.0500000), wk =   0.0040000
        k(  342) = (   0.3500000   0.4500000   0.1500000), wk =   0.0040000
        k(  343) = (   0.3500000   0.4500000   0.2500000), wk =   0.0040000
        k(  344) = (   0.3500000   0.4500000   0.3500000), wk =   0.0040000
        k(  345) = (   0.3500000   0.4500000   0.4500000), wk =   0.0040000
        k(  346) = (   0.3500000   0.4500000  -0.4500000), wk =   0.0040000
        k(  347) = (   0.3500000   0.4500000  -0.3500000), wk =   0.0040000
        k(  348) = (   0.3500000   0.4500000  -0.2500000), wk =   0.0040000
        k(  349) = (   0.3500000   0.4500000  -0.1500000), wk =   0.0040000
        k(  350) = (   0.3500000   0.4500000  -0.0500000), wk =   0.0040000
        k(  351) = (   0.3500000  -0.4500000   0.0500000), wk =   0.0040000
        k(  352) = (   0.3500000  -0.4500000   0.1500000), wk =   0.0040000
        k(  353) = (   0.3500000  -0.4500000   0.2500000), wk =   0.0040000
        k(  354) = (   0.3500000  -0.4500000   0.3500000), wk =   0.0040000
        k(  355) = (   0.3500000  -0.4500000   0.4500000), wk =   0.0040000
        k(  356) = (   0.3500000  -0.4500000  -0.4500000), wk =   0.0040000
        k(  357) = (   0.3500000  -0.4500000  -0.3500000), wk =   0.0040000
        k(  358) = (   0.3500000  -0.4500000  -0.2500000), wk =   0.0040000
        k(  359) = (   0.3500000  -0.4500000  -0.1500000), wk =   0.0040000
        k(  360) = (   0.3500000  -0.4500000  -0.0500000), wk =   0.0040000
        k(  361) = (   0.3500000  -0.3500000   0.0500000), wk =   0.0040000
        k(  362) = (   0.3500000  -0.3500000   0.1500000), wk =   0.0040000
        k(  363) = (   0.3500000  -0.3500000   0.2500000), wk =   0.0040000
        k(  364) = (   0.3500000  -0.3500000   0.3500000), wk =   0.0040000
        k(  365) = (   0.3500000  -0.3500000   0.4500000), wk =   0.0040000
        k(  366) = (   0.3500000  -0.3500000  -0.4500000), wk =   0.0040000
        k(  367) = (   0.3500000  -0.3500000  -0.3500000), wk =   0.0040000
        k(  368) = (   0.3500000  -0.3500000  -0.2500000), wk =   0.0040000
        k(  369) = (   0.3500000  -0.3500000  -0.1500000), wk =   0.0040000
        k(  370) = (   0.3500000  -0.3500000  -0.0500000), wk =   0.0040000
        k(  371) = (   0.3500000  -0.2500000   0.0500000), wk =   0.0040000
        k(  372) = (   0.3500000  -0.2500000   0.1500000), wk =   0.0040000
        k(  373) = (   0.3500000  -0.2500000   0.2500000), wk =   0.0040000
        k(  374) = (   0.3500000  -0.2500000   0.3500000), wk =   0.0040000
        k(  375) = (   0.3500000  -0.2500000   0.4500000), wk =   0.0040000
        k(  376) = (   0.3500000  -0.2500000  -0.4500000), wk =   0.0040000
        k(  377) = (   0.3500000  -0.2500000  -0.3500000), wk =   0.0040000
        k(  378) = (   0.3500000  -0.2500000  -0.2500000), wk =   0.0040000
        k(  379) = (   0.3500000  -0.2500000  -0.1500000), wk =   0.0040000
        k(  380) = (   0.3500000  -0.2500000  -0.0500000), wk =   0.0040000
        k(  381) = (   0.3500000  -0.1500000   0.0500000), wk =   0.0040000
        k(  382) = (   0.3500000  -0.1500000   0.1500000), wk =   0.0040000
        k(  383) = (   0.3500000  -0.1500000   0.2500000), wk =   0.0040000
        k(  384) = (   0.3500000  -0.1500000   0.3500000), wk =   0.0040000
        k(  385) = (   0.3500000  -0.1500000   0.4500000), wk =   0.0040000
        k(  386) = (   0.3500000  -0.1500000  -0.4500000), wk =   0.0040000
        k(  387) = (   0.3500000  -0.1500000  -0.3500000), wk =   0.0040000
        k(  388) = (   0.3500000  -0.1500000  -0.2500000), wk =   0.0040000
        k(  389) = (   0.3500000  -0.1500000  -0.1500000), wk =   0.0040000
        k(  390) = (   0.3500000  -0.1500000  -0.0500000), wk =   0.0040000
        k(  391) = (   0.3500000  -0.0500000   0.0500000), wk =   0.0040000
        k(  392) = (   0.3500000  -0.0500000   0.1500000), wk =   0.0040000
        k(  393) = (   0.3500000  -0.0500000   0.2500000), wk =   0.0040000
        k(  394) = (   0.3500000  -0.0500000   0.3500000), wk =   0.0040000
        k(  395) = (   0.3500000  -0.0500000   0.4500000), wk =   0.0040000
        k(  396) = (   0.3500000  -0.0500000  -0.4500000), wk =   0.0040000
        k(  397) = (   0.3500000  -0.0500000  -0.3500000), wk =   0.0040000
        k(  398) = (   0.3500000  -0.0500000  -0.2500000), wk =   0.0040000
        k(  399) = (   0.3500000  -0.0500000  -0.1500000), wk =   0.0040000
        k(  400) = (   0.3500000  -0.0500000  -0.0500000), wk =   0.0040000
        k(  401) = (   0.4500000   0.0500000   0.0500000), wk =   0.0040000
        k(  402) = (   0.4500000   0.0500000   0.1500000), wk =   0.0040000
        k(  403) = (   0.4500000   0.0500000   0.2500000), wk =   0.0040000
        k(  404) = (   0.4500000   0.0500000   0.3500000), wk =   0.0040000
        k(  405) = (   0.4500000   0.0500000   0.4500000), wk =   0.0040000
        k(  406) = (   0.4500000   0.0500000  -0.4500000), wk =   0.0040000
        k(  407) = (   0.4500000   0.0500000  -0.3500000), wk =   0.0040000
        k(  408) = (   0.4500000   0.0500000  -0.2500000), wk =   0.0040000
        k(  409) = (   0.4500000   0.0500000  -0.1500000), wk =   0.0040000
        k(  410) = (   0.4500000   0.0500000  -0.0500000), wk =   0.0040000
        k(  411) = (   0.4500000   0.1500000   0.0500000), wk =   0.0040000
        k(  412) = (   0.4500000   0.1500000   0.1500000), wk =   0.0040000
        k(  413) = (   0.4500000   0.1500000   0.2500000), wk =   0.0040000
        k(  414) = (   0.4500000   0.1500000   0.3500000), wk =   0.0040000
        k(  415) = (   0.4500000   0.1500000   0.4500000), wk =   0.0040000
        k(  416) = (   0.4500000   0.1500000  -0.4500000), wk =   0.0040000
        k(  417) = (   0.4500000   0.1500000  -0.3500000), wk =   0.0040000
        k(  418) = (   0.4500000   0.1500000  -0.2500000), wk =   0.0040000
        k(  419) = (   0.4500000   0.1500000  -0.1500000), wk =   0.0040000
        k(  420) = (   0.4500000   0.1500000  -0.0500000), wk =   0.0040000
        k(  421) = (   0.4500000   0.2500000   0.0500000), wk =   0.0040000
        k(  422) = (   0.4500000   0.2500000   0.1500000), wk =   0.0040000
        k(  423) = (   0.4500000   0.2500000   0.2500000), wk =   0.0040000
        k(  424) = (   0.4500000   0.2500000   0.3500000), wk =   0.0040000
        k(  425) = (   0.4500000   0.2500000   0.4500000), wk =   0.0040000
        k(  426) = (   0.4500000   0.2500000  -0.4500000), wk =   0.0040000
        k(  427) = (   0.4500000   0.2500000  -0.3500000), wk =   0.0040000
        k(  428) = (   0.4500000   0.2500000  -0.2500000), wk =   0.0040000
        k(  429) = (   0.4500000   0.2500000  -0.1500000), wk =   0.0040000
        k(  430) = (   0.4500000   0.2500000  -0.0500000), wk =   0.0040000
        k(  431) = (   0.4500000   0.3500000   0.0500000), wk =   0.0040000
        k(  432) = (   0.4500000   0.3500000   0.1500000), wk =   0.0040000
        k(  433) = (   0.4500000   0.3500000   0.2500000), wk =   0.0040000
        k(  434) = (   0.4500000   0.3500000   0.3500000), wk =   0.0040000
        k(  435) = (   0.4500000   0.3500000   0.4500000), wk =   0.0040000
        k(  436) = (   0.4500000   0.3500000  -0.4500000), wk =   0.0040000
        k(  437) = (   0.4500000   0.3500000  -0.3500000), wk =   0.0040000
        k(  438) = (   0.4500000   0.3500000  -0.2500000), wk =   0.0040000
        k(  439) = (   0.4500000   0.3500000  -0.1500000), wk =   0.0040000
        k(  440) = (   0.4500000   0.3500000  -0.0500000), wk =   0.0040000
        k(  441) = (   0.4500000   0.4500000   0.0500000), wk =   0.0040000
        k(  442) = (   0.4500000   0.4500000   0.1500000), wk =   0.0040000
        k(  443) = (   0.4500000   0.4500000   0.2500000), wk =   0.0040000
        k(  444) = (   0.4500000   0.4500000   0.3500000), wk =   0.0040000
        k(  445) = (   0.4500000   0.4500000   0.4500000), wk =   0.0040000
        k(  446) = (   0.4500000   0.4500000  -0.4500000), wk =   0.0040000
        k(  447) = (   0.4500000   0.4500000  -0.3500000), wk =   0.0040000
        k(  448) = (   0.4500000   0.4500000  -0.2500000), wk =   0.0040000
        k(  449) = (   0.4500000   0.4500000  -0.1500000), wk =   0.0040000
        k(  450) = (   0.4500000   0.4500000  -0.0500000), wk =   0.0040000
        k(  451) = (   0.4500000  -0.4500000   0.0500000), wk =   0.0040000
        k(  452) = (   0.4500000  -0.4500000   0.1500000), wk =   0.0040000
        k(  453) = (   0.4500000  -0.4500000   0.2500000), wk =   0.0040000
        k(  454) = (   0.4500000  -0.4500000   0.3500000), wk =   0.0040000
        k(  455) = (   0.4500000  -0.4500000   0.4500000), wk =   0.0040000
        k(  456) = (   0.4500000  -0.4500000  -0.4500000), wk =   0.0040000
        k(  457) = (   0.4500000  -0.4500000  -0.3500000), wk =   0.0040000
        k(  458) = (   0.4500000  -0.4500000  -0.2500000), wk =   0.0040000
        k(  459) = (   0.4500000  -0.4500000  -0.1500000), wk =   0.0040000
        k(  460) = (   0.4500000  -0.4500000  -0.0500000), wk =   0.0040000
        k(  461) = (   0.4500000  -0.3500000   0.0500000), wk =   0.0040000
        k(  462) = (   0.4500000  -0.3500000   0.1500000), wk =   0.0040000
        k(  463) = (   0.4500000  -0.3500000   0.2500000), wk =   0.0040000
        k(  464) = (   0.4500000  -0.3500000   0.3500000), wk =   0.0040000
        k(  465) = (   0.4500000  -0.3500000   0.4500000), wk =   0.0040000
        k(  466) = (   0.4500000  -0.3500000  -0.4500000), wk =   0.0040000
        k(  467) = (   0.4500000  -0.3500000  -0.3500000), wk =   0.0040000
        k(  468) = (   0.4500000  -0.3500000  -0.2500000), wk =   0.0040000
        k(  469) = (   0.4500000  -0.3500000  -0.1500000), wk =   0.0040000
        k(  470) = (   0.4500000  -0.3500000  -0.0500000), wk =   0.0040000
        k(  471) = (   0.4500000  -0.2500000   0.0500000), wk =   0.0040000
        k(  472) = (   0.4500000  -0.2500000   0.1500000), wk =   0.0040000
[...]
   -39.3133 -39.1612 -39.1611 -39.1611 -39.1601 -39.1600 -39.1600 -19.5932
   -19.5931 -19.5835 -19.5834 -19.5789 -16.2247  -7.1595  -6.8557  -6.7979
    -3.0333  -3.0270  -3.0120  -2.6718   1.6899   2.4547   2.6888   2.9388
     3.1456   3.6148   3.7539   4.1594   4.4266   6.8160   7.4240   9.0603
     9.9077  10.3341  10.5537  10.6262  11.0799  11.4886  11.7557  12.0386

     occupation numbers 
     1.0000   1.0000   1.0000   1.0000   1.0000   1.0000   1.0000   1.0000
     1.0000   1.0000   1.0000   1.0000   1.0000   1.0000   1.0000   1.0000
     1.0000   1.0000   1.0000   1.0000   1.0000   1.0000   1.0000   1.0000
     1.0000   1.0000   1.0000   1.0000   1.0000   1.0000   1.0000   1.0000
     1.0000   1.0000   1.0000   1.0000   1.0000   0.0000   0.0000   0.0000
     0.0000   0.0000   0.0000   0.0000   0.0000   0.0000   0.0000   0.0000

          k = 0.4500-0.1622 0.4425 ( 15116 PWs)   bands (ev):

   -39.3708 -39.3707 -39.3707 -39.3139 -39.3138 -39.3138 -39.3135 -39.3134
   -39.3133 -39.1612 -39.1611 -39.1611 -39.1600 -39.1600 -39.1600 -19.5932
   -19.5931 -19.5835 -19.5835 -19.5789 -16.2246  -7.1167  -6.8479  -6.8405
    -3.0343  -3.0283  -3.0155  -2.7550   1.7510   2.4154   2.8432   2.9382
     3.1748   3.6335   3.7273   4.2496   4.6385   6.6622   6.9116   9.0282
     9.9430  10.3867  10.6463  10.6571  11.0211  11.6187  12.0035  12.0995

     occupation numbers 
     1.0000   1.0000   1.0000   1.0000   1.0000   1.0000   1.0000   1.0000
     1.0000   1.0000   1.0000   1.0000   1.0000   1.0000   1.0000   1.0000
     1.0000   1.0000   1.0000   1.0000   1.0000   1.0000   1.0000   1.0000
     1.0000   1.0000   1.0000   1.0000   1.0000   1.0000   1.0000   1.0000
     1.0000   1.0000   1.0000   1.0000   1.0000   0.0000   0.0000   0.0000
     0.0000   0.0000   0.0000   0.0000   0.0000   0.0000   0.0000   0.0000

          k = 0.4500-0.1622-0.4582 ( 15116 PWs)   bands (ev):

   -39.3708 -39.3707 -39.3707 -39.3139 -39.3138 -39.3138 -39.3135 -39.3134
   -39.3132 -39.1612 -39.1611 -39.1611 -39.1601 -39.1600 -39.1600 -19.5932
   -19.5931 -19.5835 -19.5835 -19.5789 -16.2246  -7.1199  -6.8659  -6.8180
    -3.0342  -3.0286  -3.0171  -2.7577   1.7661   2.4039   2.8137   2.9331
     3.2062   3.6568   3.7243   4.2394   4.6442   6.6276   6.9472   9.0041
     9.9594  10.3747  10.6326  10.7304  10.9377  11.5877  11.8983  12.0900

     occupation numbers 
     1.0000   1.0000   1.0000   1.0000   1.0000   1.0000   1.0000   1.0000
     1.0000   1.0000   1.0000   1.0000   1.0000   1.0000   1.0000   1.0000
     1.0000   1.0000   1.0000   1.0000   1.0000   1.0000   1.0000   1.0000
     1.0000   1.0000   1.0000   1.0000   1.0000   1.0000   1.0000   1.0000
     1.0000   1.0000   1.0000   1.0000   1.0001   0.0000   0.0000   0.0000
     0.0000   0.0000   0.0000   0.0000   0.0000   0.0000   0.0000   0.0000

          k = 0.4500-0.1622-0.3581 ( 15125 PWs)   bands (ev):

   -39.3708 -39.3707 -39.3706 -39.3140 -39.3138 -39.3137 -39.3135 -39.3134
   -39.3132 -39.1612 -39.1611 -39.1611 -39.1601 -39.1600 -39.1600 -19.5933
   -19.5931 -19.5836 -19.5835 -19.5789 -16.2247  -7.1664  -6.8686  -6.7746
    -3.0327  -3.0279  -3.0162  -2.6794   1.7415   2.3810   2.6553   2.9464
     3.1929   3.6412   3.7892   4.1322   4.4335   6.7869   7.4592   8.9912
     9.9359  10.3584  10.5295  10.6481  11.0118  11.3445  11.7679  11.9614

     occupation numbers 
     1.0000   1.0000   1.0000   1.0000   1.0000   1.0000   1.0000   1.0000
     1.0000   1.0000   1.0000   1.0000   1.0000   1.0000   1.0000   1.0000
     1.0000   1.0000   1.0000   1.0000   1.0000   1.0000   1.0000   1.0000
     1.0000   1.0000   1.0000   1.0000   1.0000   1.0000   1.0000   1.0000
     1.0000   1.0000   1.0000   1.0000   1.0000   0.0000   0.0000   0.0000
     0.0000   0.0000   0.0000   0.0000   0.0000   0.0000   0.0000   0.0000

          k = 0.4500-0.1622-0.2580 ( 15119 PWs)   bands (ev):

   -39.3709 -39.3707 -39.3706 -39.3140 -39.3138 -39.3137 -39.3135 -39.3134
   -39.3132 -39.1612 -39.1611 -39.1611 -39.1601 -39.1600 -39.1600 -19.5932
   -19.5932 -19.5835 -19.5835 -19.5789 -16.2249  -7.2233  -6.8677  -6.7295
    -3.0284  -3.0262  -3.0135  -2.5419   1.7016   2.0818   2.6268   2.9756
     3.2503   3.6162   3.8368   3.9616   4.2661   6.8971   8.2616   9.0078
     9.8842  10.2629  10.4263  10.7090  11.0057  11.0775  11.5997  11.8850

     occupation numbers 
     1.0000   1.0000   1.0000   1.0000   1.0000   1.0000   1.0000   1.0000
     1.0000   1.0000   1.0000   1.0000   1.0000   1.0000   1.0000   1.0000
     1.0000   1.0000   1.0000   1.0000   1.0000   1.0000   1.0000   1.0000
     1.0000   1.0000   1.0000   1.0000   1.0000   1.0000   1.0000   1.0000
     1.0000   1.0000   1.0000   1.0000   1.0000   0.0000   0.0000   0.0000
     0.0000   0.0000   0.0000   0.0000   0.0000   0.0000   0.0000   0.0000

          k = 0.4500-0.1622-0.1580 ( 15144 PWs)   bands (ev):

   -39.3709 -39.3707 -39.3706 -39.3140 -39.3138 -39.3137 -39.3135 -39.3134
   -39.3132 -39.1612 -39.1611 -39.1611 -39.1601 -39.1600 -39.1599 -19.5933
   -19.5932 -19.5836 -19.5836 -19.5789 -16.2250  -7.2692  -6.8669  -6.6963
    -3.0245  -3.0217  -3.0109  -2.3874   1.6569   1.6961   2.6904   3.0496
     3.3438   3.5601   3.7958   3.8306   4.1846   6.9787   8.8891   9.1850
     9.8730  10.1958  10.3332  10.5562  11.0496  11.1467  11.3186  11.7540

     occupation numbers 
     1.0000   1.0000   1.0000   1.0000   1.0000   1.0000   1.0000   1.0000
     1.0000   1.0000   1.0000   1.0000   1.0000   1.0000   1.0000   1.0000
     1.0000   1.0000   1.0000   1.0000   1.0000   1.0000   1.0000   1.0000
     1.0000   1.0000   1.0000   1.0000   1.0000   1.0000   1.0000   1.0000
     1.0000   1.0000   1.0000   1.0000   1.0000   0.0000   0.0000   0.0000
     0.0000   0.0000   0.0000   0.0000   0.0000   0.0000   0.0000   0.0000

          k = 0.4500-0.1622-0.0579 ( 15134 PWs)   bands (ev):

   -39.3709 -39.3707 -39.3706 -39.3141 -39.3138 -39.3137 -39.3135 -39.3134
   -39.3132 -39.1611 -39.1611 -39.1611 -39.1601 -39.1600 -39.1599 -19.5933
   -19.5932 -19.5836 -19.5835 -19.5789 -16.2251  -7.2935  -6.8661  -6.6808
    -3.0208  -3.0187  -3.0097  -2.2790   1.4047   1.6832   2.7270   3.1587
     3.3761   3.5225   3.7190   3.7490   4.1649   7.0223   9.0027   9.5885
     9.9098  10.1227  10.3241  10.3805  11.0715  11.2579  11.3260  11.6118

     occupation numbers 
     1.0000   1.0000   1.0000   1.0000   1.0000   1.0000   1.0000   1.0000
     1.0000   1.0000   1.0000   1.0000   1.0000   1.0000   1.0000   1.0000
     1.0000   1.0000   1.0000   1.0000   1.0000   1.0000   1.0000   1.0000
     1.0000   1.0000   1.0000   1.0000   1.0000   1.0000   1.0000   1.0000
     1.0000   1.0000   1.0000   1.0000   1.0000   0.0000   0.0000   0.0000
     0.0000   0.0000   0.0000   0.0000   0.0000   0.0000   0.0000   0.0000

          k = 0.4500-0.0621 0.0396 ( 15118 PWs)   bands (ev):

   -39.3709 -39.3707 -39.3706 -39.3141 -39.3138 -39.3137 -39.3135 -39.3134
   -39.3131 -39.1611 -39.1611 -39.1611 -39.1601 -39.1600 -39.1599 -19.5933
   -19.5932 -19.5836 -19.5834 -19.5789 -16.2252  -7.3209  -6.8628  -6.6617
    -3.0200  -3.0170  -3.0081  -2.1734   1.3226   1.5032   2.7733   3.2279
     3.4245   3.5608   3.6126   3.7001   4.1188   7.0610   9.2446   9.7757
     9.8713  10.0252  10.2790  10.2990  10.9827  11.2952  11.3719  11.6287

     occupation numbers 
     1.0000   1.0000   1.0000   1.0000   1.0000   1.0000   1.0000   1.0000
     1.0000   1.0000   1.0000   1.0000   1.0000   1.0000   1.0000   1.0000
     1.0000   1.0000   1.0000   1.0000   1.0000   1.0000   1.0000   1.0000
     1.0000   1.0000   1.0000   1.0000   1.0000   1.0000   1.0000   1.0000
     1.0000   1.0000   1.0000   1.0000   1.0000   0.0000   0.0000   0.0000
     0.0000   0.0000   0.0000   0.0000   0.0000   0.0000   0.0000   0.0000

          k = 0.4500-0.0621 0.1396 ( 15130 PWs)   bands (ev):

   -39.3709 -39.3707 -39.3706 -39.3141 -39.3138 -39.3137 -39.3135 -39.3134
   -39.3132 -39.1611 -39.1611 -39.1611 -39.1601 -39.1600 -39.1599 -19.5933
   -19.5932 -19.5836 -19.5835 -19.5789 -16.2251  -7.2943  -6.8611  -6.6853
    -3.0219  -3.0158  -3.0111  -2.2782   1.3489   1.7625   2.6922   3.1385
     3.4207   3.5787   3.6357   3.7666   4.1558   7.0259   8.9921   9.6103
     9.9153  10.1170  10.3290  10.4342  11.0173  11.2460  11.3288  11.5263

     occupation numbers 
     1.0000   1.0000   1.0000   1.0000   1.0000   1.0000   1.0000   1.0000
     1.0000   1.0000   1.0000   1.0000   1.0000   1.0000   1.0000   1.0000
     1.0000   1.0000   1.0000   1.0000   1.0000   1.0000   1.0000   1.0000
     1.0000   1.0000   1.0000   1.0000   1.0000   1.0000   1.0000   1.0000
     1.0000   1.0000   1.0000   1.0000   1.0000   0.0000   0.0000   0.0000
     0.0000   0.0000   0.0000   0.0000   0.0000   0.0000   0.0000   0.0000

          k = 0.4500-0.0621 0.2397 ( 15140 PWs)   bands (ev):

   -39.3709 -39.3707 -39.3706 -39.3140 -39.3138 -39.3137 -39.3135 -39.3134
   -39.3132 -39.1612 -39.1611 -39.1611 -39.1601 -39.1600 -39.1599 -19.5933
   -19.5932 -19.5836 -19.5835 -19.5789 -16.2249  -7.2455  -6.8587  -6.7289
    -3.0246  -3.0190  -3.0106  -2.4309   1.4072   2.1632   2.5817   3.1072
     3.3987   3.4551   3.6181   3.9795   4.2428   6.9566   8.2831   9.5660
    10.0534  10.2565  10.4258  10.6992  10.9796  11.2353  11.3439  11.6853

     occupation numbers 
     1.0000   1.0000   1.0000   1.0000   1.0000   1.0000   1.0000   1.0000
     1.0000   1.0000   1.0000   1.0000   1.0000   1.0000   1.0000   1.0000
     1.0000   1.0000   1.0000   1.0000   1.0000   1.0000   1.0000   1.0000
     1.0000   1.0000   1.0000   1.0000   1.0000   1.0000   1.0000   1.0000
     1.0000   1.0000   1.0000   1.0000   1.0000   0.0000   0.0000   0.0000
     0.0000   0.0000   0.0000   0.0000   0.0000   0.0000   0.0000   0.0000

          k = 0.4500-0.0621 0.3398 ( 15128 PWs)   bands (ev):

   -39.3708 -39.3707 -39.3706 -39.3140 -39.3138 -39.3138 -39.3135 -39.3134
   -39.3132 -39.1612 -39.1611 -39.1611 -39.1601 -39.1600 -39.1600 -19.5933
   -19.5931 -19.5836 -19.5835 -19.5789 -16.2248  -7.1858  -6.8544  -6.7854
    -3.0270  -3.0222  -3.0094  -2.5681   1.4681   2.4108   2.6559   3.1088
     3.3171   3.4029   3.5832   4.1545   4.4019   6.8691   7.4694   9.5760
    10.1871  10.4464  10.5634  10.8823  11.0562  11.3216  11.4596  11.7967

     occupation numbers 
     1.0000   1.0000   1.0000   1.0000   1.0000   1.0000   1.0000   1.0000
     1.0000   1.0000   1.0000   1.0000   1.0000   1.0000   1.0000   1.0000
     1.0000   1.0000   1.0000   1.0000   1.0000   1.0000   1.0000   1.0000
     1.0000   1.0000   1.0000   1.0000   1.0000   1.0000   1.0000   1.0000
     1.0000   1.0000   1.0000   1.0000   1.0000   0.0000   0.0000   0.0000
     0.0000   0.0000   0.0000   0.0000   0.0000   0.0000   0.0000   0.0000

          k = 0.4500-0.0621 0.4398 ( 15126 PWs)   bands (ev):

   -39.3708 -39.3707 -39.3707 -39.3139 -39.3138 -39.3138 -39.3135 -39.3134
   -39.3133 -39.1612 -39.1611 -39.1611 -39.1601 -39.1600 -39.1600 -19.5933
   -19.5931 -19.5835 -19.5835 -19.5789 -16.2247  -7.1380  -6.8497  -6.8332
    -3.0281  -3.0233  -3.0091  -2.6472   1.5096   2.3750   2.8888   3.1097
     3.2802   3.4025   3.5318   4.2463   4.6089   6.7206   6.9645   9.5824
    10.2551  10.4804  10.7667  11.0034  11.3414  11.4600  11.5109  11.7283

     occupation numbers 
     1.0000   1.0000   1.0000   1.0000   1.0000   1.0000   1.0000   1.0000
     1.0000   1.0000   1.0000   1.0000   1.0000   1.0000   1.0000   1.0000
     1.0000   1.0000   1.0000   1.0000   1.0000   1.0000   1.0000   1.0000
     1.0000   1.0000   1.0000   1.0000   1.0000   1.0000   1.0000   1.0000
     1.0000   1.0000   1.0000   1.0000   1.0000   0.0000   0.0000   0.0000
     0.0000   0.0000   0.0000   0.0000   0.0000   0.0000   0.0000   0.0000

          k = 0.4500-0.0621-0.4608 ( 15125 PWs)   bands (ev):

   -39.3708 -39.3707 -39.3707 -39.3139 -39.3138 -39.3138 -39.3135 -39.3134
   -39.3133 -39.1612 -39.1611 -39.1611 -39.1601 -39.1600 -39.1600 -19.5933
   -19.5932 -19.5836 -19.5835 -19.5789 -16.2247  -7.1366  -6.8682  -6.8159
    -3.0284  -3.0227  -3.0099  -2.6472   1.5144   2.3699   2.8840   3.0878
     3.2971   3.4349   3.5120   4.2355   4.6207   6.6847   7.0015   9.5735
    10.2649  10.4763  10.7851  11.1001  11.2009  11.3823  11.5612  11.7720

     occupation numbers 
     1.0000   1.0000   1.0000   1.0000   1.0000   1.0000   1.0000   1.0000
     1.0000   1.0000   1.0000   1.0000   1.0000   1.0000   1.0000   1.0000
     1.0000   1.0000   1.0000   1.0000   1.0000   1.0000   1.0000   1.0000
     1.0000   1.0000   1.0000   1.0000   1.0000   1.0000   1.0000   1.0000
     1.0000   1.0000   1.0000   1.0000   1.0000   0.0000   0.0000   0.0000
     0.0000   0.0000   0.0000   0.0000   0.0000   0.0000   0.0000   0.0000

          k = 0.4500-0.0621-0.3607 ( 15129 PWs)   bands (ev):

   -39.3708 -39.3707 -39.3706 -39.3140 -39.3138 -39.3137 -39.3135 -39.3134
   -39.3132 -39.1612 -39.1611 -39.1611 -39.1601 -39.1600 -39.1600 -19.5933
   -19.5932 -19.5836 -19.5835 -19.5789 -16.2248  -7.1837  -6.8707  -6.7708
    -3.0272  -3.0208  -3.0114  -2.5682   1.4841   2.3660   2.6779   3.0878
     3.3168   3.4379   3.5877   4.1264   4.4242   6.8413   7.5052   9.5508
    10.1880  10.5001  10.5650  10.8744  11.0074  11.3098  11.5006  11.7416

     occupation numbers 
     1.0000   1.0000   1.0000   1.0000   1.0000   1.0000   1.0000   1.0000
     1.0000   1.0000   1.0000   1.0000   1.0000   1.0000   1.0000   1.0000
     1.0000   1.0000   1.0000   1.0000   1.0000   1.0000   1.0000   1.0000
     1.0000   1.0000   1.0000   1.0000   1.0000   1.0000   1.0000   1.0000
     1.0000   1.0000   1.0000   1.0000   1.0000   0.0000   0.0000   0.0000
     0.0000   0.0000   0.0000   0.0000   0.0000   0.0000   0.0000   0.0000

          k = 0.4500-0.0621-0.2607 ( 15123 PWs)   bands (ev):

   -39.3709 -39.3707 -39.3706 -39.3140 -39.3138 -39.3137 -39.3135 -39.3134
   -39.3132 -39.1612 -39.1611 -39.1611 -39.1601 -39.1600 -39.1599 -19.5932
   -19.5932 -19.5836 -19.5835 -19.5789 -16.2249  -7.2440  -6.8684  -6.7203
    -3.0239  -3.0190  -3.0121  -2.4315   1.4388   2.0849   2.6338   3.1048
     3.3564   3.4658   3.6705   3.9430   4.2613   6.9473   8.3061   9.5310
    10.0558  10.2577  10.4622  10.6123  11.0287  11.2397  11.3745  11.6810

     occupation numbers 
     1.0000   1.0000   1.0000   1.0000   1.0000   1.0000   1.0000   1.0000
     1.0000   1.0000   1.0000   1.0000   1.0000   1.0000   1.0000   1.0000
     1.0000   1.0000   1.0000   1.0000   1.0000   1.0000   1.0000   1.0000
     1.0000   1.0000   1.0000   1.0000   1.0000   1.0000   1.0000   1.0000
     1.0000   1.0000   1.0000   1.0000   1.0000   0.0000   0.0000   0.0000
     0.0000   0.0000   0.0000   0.0000   0.0000   0.0000   0.0000   0.0000

          k = 0.4500-0.0621-0.1606 ( 15134 PWs)   bands (ev):

   -39.3709 -39.3707 -39.3706 -39.3141 -39.3138 -39.3137 -39.3135 -39.3134
   -39.3132 -39.1611 -39.1611 -39.1611 -39.1601 -39.1600 -39.1599 -19.5933
   -19.5932 -19.5836 -19.5835 -19.5789 -16.2251  -7.2935  -6.8661  -6.6808
    -3.0208  -3.0187  -3.0097  -2.2790   1.4047   1.6832   2.7270   3.1587
     3.3761   3.5225   3.7190   3.7490   4.1649   7.0223   9.0027   9.5885
     9.9098  10.1227  10.3241  10.3805  11.0715  11.2579  11.3260  11.6118

     occupation numbers 
     1.0000   1.0000   1.0000   1.0000   1.0000   1.0000   1.0000   1.0000
     1.0000   1.0000   1.0000   1.0000   1.0000   1.0000   1.0000   1.0000
     1.0000   1.0000   1.0000   1.0000   1.0000   1.0000   1.0000   1.0000
     1.0000   1.0000   1.0000   1.0000   1.0000   1.0000   1.0000   1.0000
     1.0000   1.0000   1.0000   1.0000   1.0000   0.0000   0.0000   0.0000
     0.0000   0.0000   0.0000   0.0000   0.0000   0.0000   0.0000   0.0000

          k = 0.4500-0.0621-0.0605 ( 15122 PWs)   bands (ev):

   -39.3709 -39.3707 -39.3706 -39.3141 -39.3138 -39.3137 -39.3135 -39.3134
   -39.3131 -39.1611 -39.1611 -39.1611 -39.1601 -39.1600 -39.1599 -19.5933
   -19.5932 -19.5836 -19.5835 -19.5789 -16.2252  -7.3207  -6.8643  -6.6603
    -3.0191  -3.0188  -3.0073  -2.1738   1.4059   1.4126   2.7853   3.2744
     3.3608   3.5587   3.5776   3.7509   4.1201   7.0599   9.2400   9.8128
     9.8328  10.0195  10.2687  10.2889  11.0121  11.2873  11.3738  11.6968

     occupation numbers 
     1.0000   1.0000   1.0000   1.0000   1.0000   1.0000   1.0000   1.0000
     1.0000   1.0000   1.0000   1.0000   1.0000   1.0000   1.0000   1.0000
     1.0000   1.0000   1.0000   1.0000   1.0000   1.0000   1.0000   1.0000
     1.0000   1.0000   1.0000   1.0000   1.0000   1.0000   1.0000   1.0000
     1.0000   1.0000   1.0000   1.0000   1.0000   0.0000   0.0000   0.0000
     0.0000   0.0000   0.0000   0.0000   0.0000   0.0000   0.0000   0.0000

     the Fermi energy is     5.1371 ev

!    total energy              =    -815.45288917 Ry
     Harris-Foulkes estimate   =    -815.45288916 Ry
     estimated scf accuracy    <          6.9E-09 Ry

     The total energy is the sum of the following terms:

     one-electron contribution =    -537.68112998 Ry
     hartree contribution      =     273.83460219 Ry
     xc contribution           =    -108.90549918 Ry
     ewald contribution        =    -442.70089297 Ry
     smearing contrib. (-TS)   =       0.00003076 Ry

     convergence has been achieved in   9 iterations

     Writing output data file pwo.save

     init_run     :     15.66s CPU     15.92s WALL (       1 calls)
     electrons    :    511.31s CPU    515.33s WALL (       1 calls)

     Called by init_run:
     wfcinit      :     13.80s CPU     14.06s WALL (       1 calls)
     wfcinit:atom :      0.27s CPU      0.26s WALL (     500 calls)
     wfcinit:wfcr :     12.84s CPU     13.09s WALL (     500 calls)
     potinit      :      0.76s CPU      0.76s WALL (       1 calls)

     Called by electrons:
     c_bands      :    454.66s CPU    457.90s WALL (      10 calls)
     sum_band     :     56.49s CPU     57.24s WALL (      10 calls)
     v_of_rho     :      0.13s CPU      0.13s WALL (      10 calls)
     v_h          :      0.00s CPU      0.00s WALL (      10 calls)
     v_xc         :      0.13s CPU      0.13s WALL (      10 calls)
     mix_rho      :      0.02s CPU      0.02s WALL (      10 calls)

     Called by c_bands:
     init_us_2    :      7.93s CPU      8.09s WALL (   10500 calls)
     cegterg      :    430.76s CPU    433.83s WALL (    5000 calls)

     Called by sum_band:

     Called by *egterg:
     h_psi        :    279.87s CPU    282.91s WALL (   21678 calls)
     g_psi        :      2.36s CPU      2.34s WALL (   16178 calls)
     cdiaghg      :     89.70s CPU     89.78s WALL (   20678 calls)
     cegterg:over :     20.21s CPU     20.27s WALL (   16178 calls)
     cegterg:upda :     23.00s CPU     23.00s WALL (   16178 calls)
     cegterg:last :      8.72s CPU      8.73s WALL (    5000 calls)
     cdiaghg:chol :      4.68s CPU      4.66s WALL (   20678 calls)
     cdiaghg:inve :      3.84s CPU      3.83s WALL (   20678 calls)
     cdiaghg:para :      6.80s CPU      6.79s WALL (   41356 calls)

     Called by h_psi:
     h_psi:pot    :    276.75s CPU    279.80s WALL (   21678 calls)
     h_psi:calbec :     17.51s CPU     17.61s WALL (   21678 calls)
     vloc_psi     :    248.21s CPU    251.10s WALL (   21678 calls)
     add_vuspsi   :     11.01s CPU     11.01s WALL (   21678 calls)

     General routines
     calbec       :     17.49s CPU     17.58s WALL (   21678 calls)
     fft          :      0.14s CPU      0.15s WALL (     112 calls)
     fftw         :    262.46s CPU    266.10s WALL ( 1443654 calls)
     davcio       :      0.03s CPU      0.11s WALL (     500 calls)

     Parallel routines
     fft_scatter  :    131.51s CPU    132.19s WALL ( 1443766 calls)

     PWSCF        :  8m48.53s CPU     8m57.46s WALL


   This run was terminated on:   0:30:46  12Apr2017            

=------------------------------------------------------------------------------=
   JOB DONE.
=------------------------------------------------------------------------------=
