
     Program PWSCF v.6.7GPU starts on 16Jun2021 at 17:31:54 

     This program is part of the open-source Quantum ESPRESSO suite
     for quantum simulation of materials; please cite
         "P. Giannozzi et al., J. Phys.:Condens. Matter 21 395502 (2009);
         "P. Giannozzi et al., J. Phys.:Condens. Matter 29 465901 (2017);
         "P. Giannozzi et al., J. Chem. Phys. 152 154105 (2020);
          URL http://www.quantum-espresso.org", 
     in publications or presentations arising from this work. More details at
     http://www.quantum-espresso.org/quote

     Parallel version (MPI), running on     4 processors

     MPI processes distributed on     1 nodes
     K-points division:     npool     =       4
     Waiting for input...
     Reading input from standard input

     Current dimensions of program PWSCF are:
     Max number of different atomic species (ntypx) = 10
     Max number of k-points (npk) =  40000
     Max angular momentum in pseudopotentials (lmaxx) =  3

     Atomic positions and unit cell read from directory:
     /home/ponet/.julia/dev/DFControl/docs/build/guide/Job2/outputs/Si.save/

     file Si.pbesol-n-kjpaw_psl.0.1.UPF: wavefunction(s)  3S renormalized
     Found symmetry operation: I + (  0.0000 -0.5000 -0.5000)
     This is a supercell, fractional translations are disabled
     Message from routine setup:
     using ibrav=0 with symmetry is DISCOURAGED, use correct ibrav instead

     Subspace diagonalization in iterative solution of the eigenvalue problem:
     a serial algorithm will be used


     G-vector sticks info
     --------------------
     sticks:   dense  smooth     PW     G-vecs:    dense   smooth      PW
     Sum         673     673    241                13133    13133    2801

     Using Slab Decomposition



     bravais-lattice index     =            0
     lattice parameter (alat)  =      10.2630  a.u.
     unit-cell volume          =    1080.9899 (a.u.)^3
     number of atoms/cell      =            8
     number of atomic types    =            1
     number of electrons       =        32.00
     number of Kohn-Sham states=           16
     kinetic-energy cutoff     =      20.0000  Ry
     charge density cutoff     =      80.0000  Ry
     Exchange-correlation= SLA  PW   PSX  PSC
                           (   1   4  10   8   0   0   0)

     celldm(1)=  10.262989  celldm(2)=   0.000000  celldm(3)=   0.000000
     celldm(4)=   0.000000  celldm(5)=   0.000000  celldm(6)=   0.000000

     crystal axes: (cart. coord. in units of alat)
               a(1) = (   1.000000   0.000000   0.000000 )  
               a(2) = (   0.000000   1.000000   0.000000 )  
               a(3) = (   0.000000   0.000000   1.000000 )  

     reciprocal axes: (cart. coord. in units 2 pi/alat)
               b(1) = (  1.000000  0.000000  0.000000 )  
               b(2) = (  0.000000  1.000000  0.000000 )  
               b(3) = (  0.000000  0.000000  1.000000 )  


     PseudoPot. # 1 for Si read from file:
     /home/ponet/Documents/pseudos/pslibrary_pbesol/PSEUDOPOTENTIALS/Si.pbesol-n-kjpaw_psl.0.1.UPF
     MD5 check sum: e112a9414d22b310a654c074e8da067c
     Pseudo is Projector augmented-wave + core cor, Zval =  4.0
     Generated using "atomic" code by A. Dal Corso  v.5.0.99 svn rev. 10869
     Shape of augmentation charge: PSQ
     Using radial grid of 1141 points,  4 beta functions with: 
                l(1) =   0
                l(2) =   0
                l(3) =   1
                l(4) =   1
     Q(r) pseudized with 0 coefficients 


     atomic species   valence    mass     pseudopotential
        Si             4.00    28.08550     Si( 1.00)

     24 Sym. Ops. (no inversion) found


                                    s                        frac. trans.

      isym =  1     identity                                     

 cryst.   s( 1) = (     1          0          0      )
                  (     0          1          0      )
                  (     0          0          1      )

 cart.    s( 1) = (  1.0000000  0.0000000  0.0000000 )
                  (  0.0000000  1.0000000  0.0000000 )
                  (  0.0000000  0.0000000  1.0000000 )


      isym =  2     180 deg rotation - cart. axis [0,0,1]        

 cryst.   s( 2) = (    -1          0          0      )
                  (     0         -1          0      )
                  (     0          0          1      )

 cart.    s( 2) = ( -1.0000000  0.0000000  0.0000000 )
                  (  0.0000000 -1.0000000  0.0000000 )
                  (  0.0000000  0.0000000  1.0000000 )


      isym =  3     180 deg rotation - cart. axis [0,1,0]        

 cryst.   s( 3) = (    -1          0          0      )
                  (     0          1          0      )
                  (     0          0         -1      )

 cart.    s( 3) = ( -1.0000000  0.0000000  0.0000000 )
                  (  0.0000000  1.0000000  0.0000000 )
                  (  0.0000000  0.0000000 -1.0000000 )


      isym =  4     180 deg rotation - cart. axis [1,0,0]        

 cryst.   s( 4) = (     1          0          0      )
                  (     0         -1          0      )
                  (     0          0         -1      )

 cart.    s( 4) = (  1.0000000  0.0000000  0.0000000 )
                  (  0.0000000 -1.0000000  0.0000000 )
                  (  0.0000000  0.0000000 -1.0000000 )


      isym =  5     120 deg rotation - cart. axis [-1,-1,-1]     

 cryst.   s( 5) = (     0          0          1      )
                  (     1          0          0      )
                  (     0          1          0      )

 cart.    s( 5) = (  0.0000000  1.0000000  0.0000000 )
                  (  0.0000000  0.0000000  1.0000000 )
                  (  1.0000000  0.0000000  0.0000000 )


      isym =  6     120 deg rotation - cart. axis [-1,1,1]       

 cryst.   s( 6) = (     0          0         -1      )
                  (    -1          0          0      )
                  (     0          1          0      )

 cart.    s( 6) = (  0.0000000 -1.0000000  0.0000000 )
                  (  0.0000000  0.0000000  1.0000000 )
                  ( -1.0000000  0.0000000  0.0000000 )


      isym =  7     120 deg rotation - cart. axis [1,1,-1]       

 cryst.   s( 7) = (     0          0         -1      )
                  (     1          0          0      )
                  (     0         -1          0      )

 cart.    s( 7) = (  0.0000000  1.0000000  0.0000000 )
                  (  0.0000000  0.0000000 -1.0000000 )
                  ( -1.0000000  0.0000000  0.0000000 )


      isym =  8     120 deg rotation - cart. axis [1,-1,1]       

 cryst.   s( 8) = (     0          0          1      )
                  (    -1          0          0      )
                  (     0         -1          0      )

 cart.    s( 8) = (  0.0000000 -1.0000000  0.0000000 )
                  (  0.0000000  0.0000000 -1.0000000 )
                  (  1.0000000  0.0000000  0.0000000 )


      isym =  9     120 deg rotation - cart. axis [1,1,1]        

 cryst.   s( 9) = (     0          1          0      )
                  (     0          0          1      )
                  (     1          0          0      )

 cart.    s( 9) = (  0.0000000  0.0000000  1.0000000 )
                  (  1.0000000  0.0000000  0.0000000 )
                  (  0.0000000  1.0000000  0.0000000 )


      isym = 10     120 deg rotation - cart. axis [-1,1,-1]      

 cryst.   s(10) = (     0         -1          0      )
                  (     0          0         -1      )
                  (     1          0          0      )

 cart.    s(10) = (  0.0000000  0.0000000  1.0000000 )
                  ( -1.0000000  0.0000000  0.0000000 )
                  (  0.0000000 -1.0000000  0.0000000 )


      isym = 11     120 deg rotation - cart. axis [1,-1,-1]      

 cryst.   s(11) = (     0         -1          0      )
                  (     0          0          1      )
                  (    -1          0          0      )

 cart.    s(11) = (  0.0000000  0.0000000 -1.0000000 )
                  ( -1.0000000  0.0000000  0.0000000 )
                  (  0.0000000  1.0000000  0.0000000 )


      isym = 12     120 deg rotation - cart. axis [-1,-1,1]      

 cryst.   s(12) = (     0          1          0      )
                  (     0          0         -1      )
                  (    -1          0          0      )

 cart.    s(12) = (  0.0000000  0.0000000 -1.0000000 )
                  (  1.0000000  0.0000000  0.0000000 )
                  (  0.0000000 -1.0000000  0.0000000 )


      isym = 13     inv. 180 deg rotation - cart. axis [1,1,0]   

 cryst.   s(13) = (     0         -1          0      )
                  (    -1          0          0      )
                  (     0          0          1      )

 cart.    s(13) = (  0.0000000 -1.0000000  0.0000000 )
                  ( -1.0000000  0.0000000  0.0000000 )
                  (  0.0000000  0.0000000  1.0000000 )


      isym = 14     inv. 180 deg rotation - cart. axis [1,-1,0]  

 cryst.   s(14) = (     0          1          0      )
                  (     1          0          0      )
                  (     0          0          1      )

 cart.    s(14) = (  0.0000000  1.0000000  0.0000000 )
                  (  1.0000000  0.0000000  0.0000000 )
                  (  0.0000000  0.0000000  1.0000000 )


      isym = 15     inv.  90 deg rotation - cart. axis [0,0,-1]  

 cryst.   s(15) = (     0          1          0      )
                  (    -1          0          0      )
                  (     0          0         -1      )

 cart.    s(15) = (  0.0000000 -1.0000000  0.0000000 )
                  (  1.0000000  0.0000000  0.0000000 )
                  (  0.0000000  0.0000000 -1.0000000 )


      isym = 16     inv.  90 deg rotation - cart. axis [0,0,1]   

 cryst.   s(16) = (     0         -1          0      )
                  (     1          0          0      )
                  (     0          0         -1      )

 cart.    s(16) = (  0.0000000  1.0000000  0.0000000 )
                  ( -1.0000000  0.0000000  0.0000000 )
                  (  0.0000000  0.0000000 -1.0000000 )


      isym = 17     inv. 180 deg rotation - cart. axis [1,0,1]   

 cryst.   s(17) = (     0          0         -1      )
                  (     0          1          0      )
                  (    -1          0          0      )

 cart.    s(17) = (  0.0000000  0.0000000 -1.0000000 )
                  (  0.0000000  1.0000000  0.0000000 )
                  ( -1.0000000  0.0000000  0.0000000 )


      isym = 18     inv. 180 deg rotation - cart. axis [-1,0,1]  

 cryst.   s(18) = (     0          0          1      )
                  (     0          1          0      )
                  (     1          0          0      )

 cart.    s(18) = (  0.0000000  0.0000000  1.0000000 )
                  (  0.0000000  1.0000000  0.0000000 )
                  (  1.0000000  0.0000000  0.0000000 )


      isym = 19     inv.  90 deg rotation - cart. axis [0,1,0]   

 cryst.   s(19) = (     0          0          1      )
                  (     0         -1          0      )
                  (    -1          0          0      )

 cart.    s(19) = (  0.0000000  0.0000000 -1.0000000 )
                  (  0.0000000 -1.0000000  0.0000000 )
                  (  1.0000000  0.0000000  0.0000000 )


      isym = 20     inv.  90 deg rotation - cart. axis [0,-1,0]  

 cryst.   s(20) = (     0          0         -1      )
                  (     0         -1          0      )
                  (     1          0          0      )

 cart.    s(20) = (  0.0000000  0.0000000  1.0000000 )
                  (  0.0000000 -1.0000000  0.0000000 )
                  ( -1.0000000  0.0000000  0.0000000 )


      isym = 21     inv. 180 deg rotation - cart. axis [0,1,1]   

 cryst.   s(21) = (     1          0          0      )
                  (     0          0         -1      )
                  (     0         -1          0      )

 cart.    s(21) = (  1.0000000  0.0000000  0.0000000 )
                  (  0.0000000  0.0000000 -1.0000000 )
                  (  0.0000000 -1.0000000  0.0000000 )


      isym = 22     inv. 180 deg rotation - cart. axis [0,1,-1]  

 cryst.   s(22) = (     1          0          0      )
                  (     0          0          1      )
                  (     0          1          0      )

 cart.    s(22) = (  1.0000000  0.0000000  0.0000000 )
                  (  0.0000000  0.0000000  1.0000000 )
                  (  0.0000000  1.0000000  0.0000000 )


      isym = 23     inv.  90 deg rotation - cart. axis [-1,0,0]  

 cryst.   s(23) = (    -1          0          0      )
                  (     0          0          1      )
                  (     0         -1          0      )

 cart.    s(23) = ( -1.0000000  0.0000000  0.0000000 )
                  (  0.0000000  0.0000000 -1.0000000 )
                  (  0.0000000  1.0000000  0.0000000 )


      isym = 24     inv.  90 deg rotation - cart. axis [1,0,0]   

 cryst.   s(24) = (    -1          0          0      )
                  (     0          0         -1      )
                  (     0          1          0      )

 cart.    s(24) = ( -1.0000000  0.0000000  0.0000000 )
                  (  0.0000000  0.0000000  1.0000000 )
                  (  0.0000000 -1.0000000  0.0000000 )


   Cartesian axes

     site n.     atom                  positions (alat units)
         1           Si  tau(   1) = (   0.0000000   0.0000000   0.0000000  )
         2           Si  tau(   2) = (   0.0000000   0.5000000   0.5000000  )
         3           Si  tau(   3) = (   0.2500000   0.2500000   0.2500000  )
         4           Si  tau(   4) = (   0.5000000   0.0000000   0.5000000  )
         5           Si  tau(   5) = (   0.2500000   0.7500000   0.7500000  )
         6           Si  tau(   6) = (   0.7500000   0.7500000   0.2500000  )
         7           Si  tau(   7) = (   0.7500000   0.2500000   0.7500000  )
         8           Si  tau(   8) = (   0.5000000   0.5000000   0.0000000  )

   Crystallographic axes

     site n.     atom                  positions (cryst. coord.)
         1           Si  tau(   1) = (  0.0000000  0.0000000  0.0000000  )
         2           Si  tau(   2) = (  0.0000000  0.5000000  0.5000000  )
         3           Si  tau(   3) = (  0.2500000  0.2500000  0.2500000  )
         4           Si  tau(   4) = (  0.5000000  0.0000000  0.5000000  )
         5           Si  tau(   5) = (  0.2500000  0.7500000  0.7500000  )
         6           Si  tau(   6) = (  0.7500000  0.7500000  0.2500000  )
         7           Si  tau(   7) = (  0.7500000  0.2500000  0.7500000  )
         8           Si  tau(   8) = (  0.5000000  0.5000000  0.0000000  )

     number of k points=   216
                       cart. coord. in units 2pi/alat
        k(    1) = (   0.0000000   0.0000000   0.0000000), wk =   0.0092593
        k(    2) = (   0.1666667   0.0000000   0.0000000), wk =   0.0092593
        k(    3) = (   0.3333333   0.0000000   0.0000000), wk =   0.0092593
        k(    4) = (   0.5000000   0.0000000   0.0000000), wk =   0.0092593
        k(    5) = (   0.6666667   0.0000000   0.0000000), wk =   0.0092593
        k(    6) = (   0.8333333   0.0000000   0.0000000), wk =   0.0092593
        k(    7) = (   0.0000000   0.1666667   0.0000000), wk =   0.0092593
        k(    8) = (   0.1666667   0.1666667   0.0000000), wk =   0.0092593
        k(    9) = (   0.3333333   0.1666667   0.0000000), wk =   0.0092593
        k(   10) = (   0.5000000   0.1666667   0.0000000), wk =   0.0092593
        k(   11) = (   0.6666667   0.1666667   0.0000000), wk =   0.0092593
        k(   12) = (   0.8333333   0.1666667   0.0000000), wk =   0.0092593
        k(   13) = (   0.0000000   0.3333333   0.0000000), wk =   0.0092593
        k(   14) = (   0.1666667   0.3333333   0.0000000), wk =   0.0092593
        k(   15) = (   0.3333333   0.3333333   0.0000000), wk =   0.0092593
        k(   16) = (   0.5000000   0.3333333   0.0000000), wk =   0.0092593
        k(   17) = (   0.6666667   0.3333333   0.0000000), wk =   0.0092593
        k(   18) = (   0.8333333   0.3333333   0.0000000), wk =   0.0092593
        k(   19) = (   0.0000000   0.5000000   0.0000000), wk =   0.0092593
        k(   20) = (   0.1666667   0.5000000   0.0000000), wk =   0.0092593
        k(   21) = (   0.3333333   0.5000000   0.0000000), wk =   0.0092593
        k(   22) = (   0.5000000   0.5000000   0.0000000), wk =   0.0092593
        k(   23) = (   0.6666667   0.5000000   0.0000000), wk =   0.0092593
        k(   24) = (   0.8333333   0.5000000   0.0000000), wk =   0.0092593
        k(   25) = (   0.0000000   0.6666667   0.0000000), wk =   0.0092593
        k(   26) = (   0.1666667   0.6666667   0.0000000), wk =   0.0092593
        k(   27) = (   0.3333333   0.6666667   0.0000000), wk =   0.0092593
        k(   28) = (   0.5000000   0.6666667   0.0000000), wk =   0.0092593
        k(   29) = (   0.6666667   0.6666667   0.0000000), wk =   0.0092593
        k(   30) = (   0.8333333   0.6666667   0.0000000), wk =   0.0092593
        k(   31) = (   0.0000000   0.8333333   0.0000000), wk =   0.0092593
        k(   32) = (   0.1666667   0.8333333   0.0000000), wk =   0.0092593
        k(   33) = (   0.3333333   0.8333333   0.0000000), wk =   0.0092593
        k(   34) = (   0.5000000   0.8333333   0.0000000), wk =   0.0092593
        k(   35) = (   0.6666667   0.8333333   0.0000000), wk =   0.0092593
        k(   36) = (   0.8333333   0.8333333   0.0000000), wk =   0.0092593
        k(   37) = (   0.0000000   0.0000000   0.1666667), wk =   0.0092593
        k(   38) = (   0.1666667   0.0000000   0.1666667), wk =   0.0092593
        k(   39) = (   0.3333333   0.0000000   0.1666667), wk =   0.0092593
        k(   40) = (   0.5000000   0.0000000   0.1666667), wk =   0.0092593
        k(   41) = (   0.6666667   0.0000000   0.1666667), wk =   0.0092593
        k(   42) = (   0.8333333   0.0000000   0.1666667), wk =   0.0092593
        k(   43) = (   0.0000000   0.1666667   0.1666667), wk =   0.0092593
        k(   44) = (   0.1666667   0.1666667   0.1666667), wk =   0.0092593
        k(   45) = (   0.3333333   0.1666667   0.1666667), wk =   0.0092593
        k(   46) = (   0.5000000   0.1666667   0.1666667), wk =   0.0092593
        k(   47) = (   0.6666667   0.1666667   0.1666667), wk =   0.0092593
        k(   48) = (   0.8333333   0.1666667   0.1666667), wk =   0.0092593
        k(   49) = (   0.0000000   0.3333333   0.1666667), wk =   0.0092593
        k(   50) = (   0.1666667   0.3333333   0.1666667), wk =   0.0092593
        k(   51) = (   0.3333333   0.3333333   0.1666667), wk =   0.0092593
        k(   52) = (   0.5000000   0.3333333   0.1666667), wk =   0.0092593
        k(   53) = (   0.6666667   0.3333333   0.1666667), wk =   0.0092593
        k(   54) = (   0.8333333   0.3333333   0.1666667), wk =   0.0092593
        k(   55) = (   0.0000000   0.5000000   0.1666667), wk =   0.0092593
        k(   56) = (   0.1666667   0.5000000   0.1666667), wk =   0.0092593
        k(   57) = (   0.3333333   0.5000000   0.1666667), wk =   0.0092593
        k(   58) = (   0.5000000   0.5000000   0.1666667), wk =   0.0092593
        k(   59) = (   0.6666667   0.5000000   0.1666667), wk =   0.0092593
        k(   60) = (   0.8333333   0.5000000   0.1666667), wk =   0.0092593
        k(   61) = (   0.0000000   0.6666667   0.1666667), wk =   0.0092593
        k(   62) = (   0.1666667   0.6666667   0.1666667), wk =   0.0092593
        k(   63) = (   0.3333333   0.6666667   0.1666667), wk =   0.0092593
        k(   64) = (   0.5000000   0.6666667   0.1666667), wk =   0.0092593
        k(   65) = (   0.6666667   0.6666667   0.1666667), wk =   0.0092593
        k(   66) = (   0.8333333   0.6666667   0.1666667), wk =   0.0092593
        k(   67) = (   0.0000000   0.8333333   0.1666667), wk =   0.0092593
        k(   68) = (   0.1666667   0.8333333   0.1666667), wk =   0.0092593
        k(   69) = (   0.3333333   0.8333333   0.1666667), wk =   0.0092593
        k(   70) = (   0.5000000   0.8333333   0.1666667), wk =   0.0092593
        k(   71) = (   0.6666667   0.8333333   0.1666667), wk =   0.0092593
        k(   72) = (   0.8333333   0.8333333   0.1666667), wk =   0.0092593
        k(   73) = (   0.0000000   0.0000000   0.3333333), wk =   0.0092593
        k(   74) = (   0.1666667   0.0000000   0.3333333), wk =   0.0092593
        k(   75) = (   0.3333333   0.0000000   0.3333333), wk =   0.0092593
        k(   76) = (   0.5000000   0.0000000   0.3333333), wk =   0.0092593
        k(   77) = (   0.6666667   0.0000000   0.3333333), wk =   0.0092593
        k(   78) = (   0.8333333   0.0000000   0.3333333), wk =   0.0092593
        k(   79) = (   0.0000000   0.1666667   0.3333333), wk =   0.0092593
        k(   80) = (   0.1666667   0.1666667   0.3333333), wk =   0.0092593
        k(   81) = (   0.3333333   0.1666667   0.3333333), wk =   0.0092593
        k(   82) = (   0.5000000   0.1666667   0.3333333), wk =   0.0092593
        k(   83) = (   0.6666667   0.1666667   0.3333333), wk =   0.0092593
        k(   84) = (   0.8333333   0.1666667   0.3333333), wk =   0.0092593
        k(   85) = (   0.0000000   0.3333333   0.3333333), wk =   0.0092593
        k(   86) = (   0.1666667   0.3333333   0.3333333), wk =   0.0092593
        k(   87) = (   0.3333333   0.3333333   0.3333333), wk =   0.0092593
        k(   88) = (   0.5000000   0.3333333   0.3333333), wk =   0.0092593
        k(   89) = (   0.6666667   0.3333333   0.3333333), wk =   0.0092593
        k(   90) = (   0.8333333   0.3333333   0.3333333), wk =   0.0092593
        k(   91) = (   0.0000000   0.5000000   0.3333333), wk =   0.0092593
        k(   92) = (   0.1666667   0.5000000   0.3333333), wk =   0.0092593
        k(   93) = (   0.3333333   0.5000000   0.3333333), wk =   0.0092593
        k(   94) = (   0.5000000   0.5000000   0.3333333), wk =   0.0092593
        k(   95) = (   0.6666667   0.5000000   0.3333333), wk =   0.0092593
        k(   96) = (   0.8333333   0.5000000   0.3333333), wk =   0.0092593
        k(   97) = (   0.0000000   0.6666667   0.3333333), wk =   0.0092593
        k(   98) = (   0.1666667   0.6666667   0.3333333), wk =   0.0092593
        k(   99) = (   0.3333333   0.6666667   0.3333333), wk =   0.0092593
        k(  100) = (   0.5000000   0.6666667   0.3333333), wk =   0.0092593
        k(  101) = (   0.6666667   0.6666667   0.3333333), wk =   0.0092593
        k(  102) = (   0.8333333   0.6666667   0.3333333), wk =   0.0092593
        k(  103) = (   0.0000000   0.8333333   0.3333333), wk =   0.0092593
        k(  104) = (   0.1666667   0.8333333   0.3333333), wk =   0.0092593
        k(  105) = (   0.3333333   0.8333333   0.3333333), wk =   0.0092593
        k(  106) = (   0.5000000   0.8333333   0.3333333), wk =   0.0092593
        k(  107) = (   0.6666667   0.8333333   0.3333333), wk =   0.0092593
        k(  108) = (   0.8333333   0.8333333   0.3333333), wk =   0.0092593
        k(  109) = (   0.0000000   0.0000000   0.5000000), wk =   0.0092593
        k(  110) = (   0.1666667   0.0000000   0.5000000), wk =   0.0092593
        k(  111) = (   0.3333333   0.0000000   0.5000000), wk =   0.0092593
        k(  112) = (   0.5000000   0.0000000   0.5000000), wk =   0.0092593
        k(  113) = (   0.6666667   0.0000000   0.5000000), wk =   0.0092593
        k(  114) = (   0.8333333   0.0000000   0.5000000), wk =   0.0092593
        k(  115) = (   0.0000000   0.1666667   0.5000000), wk =   0.0092593
        k(  116) = (   0.1666667   0.1666667   0.5000000), wk =   0.0092593
        k(  117) = (   0.3333333   0.1666667   0.5000000), wk =   0.0092593
        k(  118) = (   0.5000000   0.1666667   0.5000000), wk =   0.0092593
        k(  119) = (   0.6666667   0.1666667   0.5000000), wk =   0.0092593
        k(  120) = (   0.8333333   0.1666667   0.5000000), wk =   0.0092593
        k(  121) = (   0.0000000   0.3333333   0.5000000), wk =   0.0092593
        k(  122) = (   0.1666667   0.3333333   0.5000000), wk =   0.0092593
        k(  123) = (   0.3333333   0.3333333   0.5000000), wk =   0.0092593
        k(  124) = (   0.5000000   0.3333333   0.5000000), wk =   0.0092593
        k(  125) = (   0.6666667   0.3333333   0.5000000), wk =   0.0092593
        k(  126) = (   0.8333333   0.3333333   0.5000000), wk =   0.0092593
        k(  127) = (   0.0000000   0.5000000   0.5000000), wk =   0.0092593
        k(  128) = (   0.1666667   0.5000000   0.5000000), wk =   0.0092593
        k(  129) = (   0.3333333   0.5000000   0.5000000), wk =   0.0092593
        k(  130) = (   0.5000000   0.5000000   0.5000000), wk =   0.0092593
        k(  131) = (   0.6666667   0.5000000   0.5000000), wk =   0.0092593
        k(  132) = (   0.8333333   0.5000000   0.5000000), wk =   0.0092593
        k(  133) = (   0.0000000   0.6666667   0.5000000), wk =   0.0092593
        k(  134) = (   0.1666667   0.6666667   0.5000000), wk =   0.0092593
        k(  135) = (   0.3333333   0.6666667   0.5000000), wk =   0.0092593
        k(  136) = (   0.5000000   0.6666667   0.5000000), wk =   0.0092593
        k(  137) = (   0.6666667   0.6666667   0.5000000), wk =   0.0092593
        k(  138) = (   0.8333333   0.6666667   0.5000000), wk =   0.0092593
        k(  139) = (   0.0000000   0.8333333   0.5000000), wk =   0.0092593
        k(  140) = (   0.1666667   0.8333333   0.5000000), wk =   0.0092593
        k(  141) = (   0.3333333   0.8333333   0.5000000), wk =   0.0092593
        k(  142) = (   0.5000000   0.8333333   0.5000000), wk =   0.0092593
        k(  143) = (   0.6666667   0.8333333   0.5000000), wk =   0.0092593
        k(  144) = (   0.8333333   0.8333333   0.5000000), wk =   0.0092593
        k(  145) = (   0.0000000   0.0000000   0.6666667), wk =   0.0092593
        k(  146) = (   0.1666667   0.0000000   0.6666667), wk =   0.0092593
        k(  147) = (   0.3333333   0.0000000   0.6666667), wk =   0.0092593
        k(  148) = (   0.5000000   0.0000000   0.6666667), wk =   0.0092593
        k(  149) = (   0.6666667   0.0000000   0.6666667), wk =   0.0092593
        k(  150) = (   0.8333333   0.0000000   0.6666667), wk =   0.0092593
        k(  151) = (   0.0000000   0.1666667   0.6666667), wk =   0.0092593
        k(  152) = (   0.1666667   0.1666667   0.6666667), wk =   0.0092593
        k(  153) = (   0.3333333   0.1666667   0.6666667), wk =   0.0092593
        k(  154) = (   0.5000000   0.1666667   0.6666667), wk =   0.0092593
        k(  155) = (   0.6666667   0.1666667   0.6666667), wk =   0.0092593
        k(  156) = (   0.8333333   0.1666667   0.6666667), wk =   0.0092593
        k(  157) = (   0.0000000   0.3333333   0.6666667), wk =   0.0092593
        k(  158) = (   0.1666667   0.3333333   0.6666667), wk =   0.0092593
        k(  159) = (   0.3333333   0.3333333   0.6666667), wk =   0.0092593
        k(  160) = (   0.5000000   0.3333333   0.6666667), wk =   0.0092593
        k(  161) = (   0.6666667   0.3333333   0.6666667), wk =   0.0092593
        k(  162) = (   0.8333333   0.3333333   0.6666667), wk =   0.0092593
        k(  163) = (   0.0000000   0.5000000   0.6666667), wk =   0.0092593
        k(  164) = (   0.1666667   0.5000000   0.6666667), wk =   0.0092593
        k(  165) = (   0.3333333   0.5000000   0.6666667), wk =   0.0092593
        k(  166) = (   0.5000000   0.5000000   0.6666667), wk =   0.0092593
        k(  167) = (   0.6666667   0.5000000   0.6666667), wk =   0.0092593
        k(  168) = (   0.8333333   0.5000000   0.6666667), wk =   0.0092593
        k(  169) = (   0.0000000   0.6666667   0.6666667), wk =   0.0092593
        k(  170) = (   0.1666667   0.6666667   0.6666667), wk =   0.0092593
        k(  171) = (   0.3333333   0.6666667   0.6666667), wk =   0.0092593
        k(  172) = (   0.5000000   0.6666667   0.6666667), wk =   0.0092593
        k(  173) = (   0.6666667   0.6666667   0.6666667), wk =   0.0092593
        k(  174) = (   0.8333333   0.6666667   0.6666667), wk =   0.0092593
        k(  175) = (   0.0000000   0.8333333   0.6666667), wk =   0.0092593
        k(  176) = (   0.1666667   0.8333333   0.6666667), wk =   0.0092593
        k(  177) = (   0.3333333   0.8333333   0.6666667), wk =   0.0092593
        k(  178) = (   0.5000000   0.8333333   0.6666667), wk =   0.0092593
        k(  179) = (   0.6666667   0.8333333   0.6666667), wk =   0.0092593
        k(  180) = (   0.8333333   0.8333333   0.6666667), wk =   0.0092593
        k(  181) = (   0.0000000   0.0000000   0.8333333), wk =   0.0092593
        k(  182) = (   0.1666667   0.0000000   0.8333333), wk =   0.0092593
        k(  183) = (   0.3333333   0.0000000   0.8333333), wk =   0.0092593
        k(  184) = (   0.5000000   0.0000000   0.8333333), wk =   0.0092593
        k(  185) = (   0.6666667   0.0000000   0.8333333), wk =   0.0092593
        k(  186) = (   0.8333333   0.0000000   0.8333333), wk =   0.0092593
        k(  187) = (   0.0000000   0.1666667   0.8333333), wk =   0.0092593
        k(  188) = (   0.1666667   0.1666667   0.8333333), wk =   0.0092593
        k(  189) = (   0.3333333   0.1666667   0.8333333), wk =   0.0092593
        k(  190) = (   0.5000000   0.1666667   0.8333333), wk =   0.0092593
        k(  191) = (   0.6666667   0.1666667   0.8333333), wk =   0.0092593
        k(  192) = (   0.8333333   0.1666667   0.8333333), wk =   0.0092593
        k(  193) = (   0.0000000   0.3333333   0.8333333), wk =   0.0092593
        k(  194) = (   0.1666667   0.3333333   0.8333333), wk =   0.0092593
        k(  195) = (   0.3333333   0.3333333   0.8333333), wk =   0.0092593
        k(  196) = (   0.5000000   0.3333333   0.8333333), wk =   0.0092593
        k(  197) = (   0.6666667   0.3333333   0.8333333), wk =   0.0092593
        k(  198) = (   0.8333333   0.3333333   0.8333333), wk =   0.0092593
        k(  199) = (   0.0000000   0.5000000   0.8333333), wk =   0.0092593
        k(  200) = (   0.1666667   0.5000000   0.8333333), wk =   0.0092593
        k(  201) = (   0.3333333   0.5000000   0.8333333), wk =   0.0092593
        k(  202) = (   0.5000000   0.5000000   0.8333333), wk =   0.0092593
        k(  203) = (   0.6666667   0.5000000   0.8333333), wk =   0.0092593
        k(  204) = (   0.8333333   0.5000000   0.8333333), wk =   0.0092593
        k(  205) = (   0.0000000   0.6666667   0.8333333), wk =   0.0092593
        k(  206) = (   0.1666667   0.6666667   0.8333333), wk =   0.0092593
        k(  207) = (   0.3333333   0.6666667   0.8333333), wk =   0.0092593
        k(  208) = (   0.5000000   0.6666667   0.8333333), wk =   0.0092593
        k(  209) = (   0.6666667   0.6666667   0.8333333), wk =   0.0092593
        k(  210) = (   0.8333333   0.6666667   0.8333333), wk =   0.0092593
        k(  211) = (   0.0000000   0.8333333   0.8333333), wk =   0.0092593
        k(  212) = (   0.1666667   0.8333333   0.8333333), wk =   0.0092593
        k(  213) = (   0.3333333   0.8333333   0.8333333), wk =   0.0092593
        k(  214) = (   0.5000000   0.8333333   0.8333333), wk =   0.0092593
        k(  215) = (   0.6666667   0.8333333   0.8333333), wk =   0.0092593
        k(  216) = (   0.8333333   0.8333333   0.8333333), wk =   0.0092593

                       cryst. coord.
        k(    1) = (   0.0000000   0.0000000   0.0000000), wk =   0.0092593
        k(    2) = (   0.1666667   0.0000000   0.0000000), wk =   0.0092593
        k(    3) = (   0.3333333   0.0000000   0.0000000), wk =   0.0092593
        k(    4) = (   0.5000000   0.0000000   0.0000000), wk =   0.0092593
        k(    5) = (   0.6666667   0.0000000   0.0000000), wk =   0.0092593
        k(    6) = (   0.8333333   0.0000000   0.0000000), wk =   0.0092593
        k(    7) = (   0.0000000   0.1666667   0.0000000), wk =   0.0092593
        k(    8) = (   0.1666667   0.1666667   0.0000000), wk =   0.0092593
        k(    9) = (   0.3333333   0.1666667   0.0000000), wk =   0.0092593
        k(   10) = (   0.5000000   0.1666667   0.0000000), wk =   0.0092593
        k(   11) = (   0.6666667   0.1666667   0.0000000), wk =   0.0092593
        k(   12) = (   0.8333333   0.1666667   0.0000000), wk =   0.0092593
        k(   13) = (   0.0000000   0.3333333   0.0000000), wk =   0.0092593
        k(   14) = (   0.1666667   0.3333333   0.0000000), wk =   0.0092593
        k(   15) = (   0.3333333   0.3333333   0.0000000), wk =   0.0092593
        k(   16) = (   0.5000000   0.3333333   0.0000000), wk =   0.0092593
        k(   17) = (   0.6666667   0.3333333   0.0000000), wk =   0.0092593
        k(   18) = (   0.8333333   0.3333333   0.0000000), wk =   0.0092593
        k(   19) = (   0.0000000   0.5000000   0.0000000), wk =   0.0092593
        k(   20) = (   0.1666667   0.5000000   0.0000000), wk =   0.0092593
        k(   21) = (   0.3333333   0.5000000   0.0000000), wk =   0.0092593
        k(   22) = (   0.5000000   0.5000000   0.0000000), wk =   0.0092593
        k(   23) = (   0.6666667   0.5000000   0.0000000), wk =   0.0092593
        k(   24) = (   0.8333333   0.5000000   0.0000000), wk =   0.0092593
        k(   25) = (   0.0000000   0.6666667   0.0000000), wk =   0.0092593
        k(   26) = (   0.1666667   0.6666667   0.0000000), wk =   0.0092593
        k(   27) = (   0.3333333   0.6666667   0.0000000), wk =   0.0092593
        k(   28) = (   0.5000000   0.6666667   0.0000000), wk =   0.0092593
        k(   29) = (   0.6666667   0.6666667   0.0000000), wk =   0.0092593
        k(   30) = (   0.8333333   0.6666667   0.0000000), wk =   0.0092593
        k(   31) = (   0.0000000   0.8333333   0.0000000), wk =   0.0092593
        k(   32) = (   0.1666667   0.8333333   0.0000000), wk =   0.0092593
        k(   33) = (   0.3333333   0.8333333   0.0000000), wk =   0.0092593
        k(   34) = (   0.5000000   0.8333333   0.0000000), wk =   0.0092593
        k(   35) = (   0.6666667   0.8333333   0.0000000), wk =   0.0092593
        k(   36) = (   0.8333333   0.8333333   0.0000000), wk =   0.0092593
        k(   37) = (   0.0000000   0.0000000   0.1666667), wk =   0.0092593
        k(   38) = (   0.1666667   0.0000000   0.1666667), wk =   0.0092593
        k(   39) = (   0.3333333   0.0000000   0.1666667), wk =   0.0092593
        k(   40) = (   0.5000000   0.0000000   0.1666667), wk =   0.0092593
        k(   41) = (   0.6666667   0.0000000   0.1666667), wk =   0.0092593
        k(   42) = (   0.8333333   0.0000000   0.1666667), wk =   0.0092593
        k(   43) = (   0.0000000   0.1666667   0.1666667), wk =   0.0092593
        k(   44) = (   0.1666667   0.1666667   0.1666667), wk =   0.0092593
        k(   45) = (   0.3333333   0.1666667   0.1666667), wk =   0.0092593
        k(   46) = (   0.5000000   0.1666667   0.1666667), wk =   0.0092593
        k(   47) = (   0.6666667   0.1666667   0.1666667), wk =   0.0092593
        k(   48) = (   0.8333333   0.1666667   0.1666667), wk =   0.0092593
        k(   49) = (   0.0000000   0.3333333   0.1666667), wk =   0.0092593
        k(   50) = (   0.1666667   0.3333333   0.1666667), wk =   0.0092593
        k(   51) = (   0.3333333   0.3333333   0.1666667), wk =   0.0092593
        k(   52) = (   0.5000000   0.3333333   0.1666667), wk =   0.0092593
        k(   53) = (   0.6666667   0.3333333   0.1666667), wk =   0.0092593
        k(   54) = (   0.8333333   0.3333333   0.1666667), wk =   0.0092593
        k(   55) = (   0.0000000   0.5000000   0.1666667), wk =   0.0092593
        k(   56) = (   0.1666667   0.5000000   0.1666667), wk =   0.0092593
        k(   57) = (   0.3333333   0.5000000   0.1666667), wk =   0.0092593
        k(   58) = (   0.5000000   0.5000000   0.1666667), wk =   0.0092593
        k(   59) = (   0.6666667   0.5000000   0.1666667), wk =   0.0092593
        k(   60) = (   0.8333333   0.5000000   0.1666667), wk =   0.0092593
        k(   61) = (   0.0000000   0.6666667   0.1666667), wk =   0.0092593
        k(   62) = (   0.1666667   0.6666667   0.1666667), wk =   0.0092593
        k(   63) = (   0.3333333   0.6666667   0.1666667), wk =   0.0092593
        k(   64) = (   0.5000000   0.6666667   0.1666667), wk =   0.0092593
        k(   65) = (   0.6666667   0.6666667   0.1666667), wk =   0.0092593
        k(   66) = (   0.8333333   0.6666667   0.1666667), wk =   0.0092593
        k(   67) = (   0.0000000   0.8333333   0.1666667), wk =   0.0092593
        k(   68) = (   0.1666667   0.8333333   0.1666667), wk =   0.0092593
        k(   69) = (   0.3333333   0.8333333   0.1666667), wk =   0.0092593
        k(   70) = (   0.5000000   0.8333333   0.1666667), wk =   0.0092593
        k(   71) = (   0.6666667   0.8333333   0.1666667), wk =   0.0092593
        k(   72) = (   0.8333333   0.8333333   0.1666667), wk =   0.0092593
        k(   73) = (   0.0000000   0.0000000   0.3333333), wk =   0.0092593
        k(   74) = (   0.1666667   0.0000000   0.3333333), wk =   0.0092593
        k(   75) = (   0.3333333   0.0000000   0.3333333), wk =   0.0092593
        k(   76) = (   0.5000000   0.0000000   0.3333333), wk =   0.0092593
        k(   77) = (   0.6666667   0.0000000   0.3333333), wk =   0.0092593
        k(   78) = (   0.8333333   0.0000000   0.3333333), wk =   0.0092593
        k(   79) = (   0.0000000   0.1666667   0.3333333), wk =   0.0092593
        k(   80) = (   0.1666667   0.1666667   0.3333333), wk =   0.0092593
        k(   81) = (   0.3333333   0.1666667   0.3333333), wk =   0.0092593
        k(   82) = (   0.5000000   0.1666667   0.3333333), wk =   0.0092593
        k(   83) = (   0.6666667   0.1666667   0.3333333), wk =   0.0092593
        k(   84) = (   0.8333333   0.1666667   0.3333333), wk =   0.0092593
        k(   85) = (   0.0000000   0.3333333   0.3333333), wk =   0.0092593
        k(   86) = (   0.1666667   0.3333333   0.3333333), wk =   0.0092593
        k(   87) = (   0.3333333   0.3333333   0.3333333), wk =   0.0092593
        k(   88) = (   0.5000000   0.3333333   0.3333333), wk =   0.0092593
        k(   89) = (   0.6666667   0.3333333   0.3333333), wk =   0.0092593
        k(   90) = (   0.8333333   0.3333333   0.3333333), wk =   0.0092593
        k(   91) = (   0.0000000   0.5000000   0.3333333), wk =   0.0092593
        k(   92) = (   0.1666667   0.5000000   0.3333333), wk =   0.0092593
        k(   93) = (   0.3333333   0.5000000   0.3333333), wk =   0.0092593
        k(   94) = (   0.5000000   0.5000000   0.3333333), wk =   0.0092593
        k(   95) = (   0.6666667   0.5000000   0.3333333), wk =   0.0092593
        k(   96) = (   0.8333333   0.5000000   0.3333333), wk =   0.0092593
        k(   97) = (   0.0000000   0.6666667   0.3333333), wk =   0.0092593
        k(   98) = (   0.1666667   0.6666667   0.3333333), wk =   0.0092593
        k(   99) = (   0.3333333   0.6666667   0.3333333), wk =   0.0092593
        k(  100) = (   0.5000000   0.6666667   0.3333333), wk =   0.0092593
        k(  101) = (   0.6666667   0.6666667   0.3333333), wk =   0.0092593
        k(  102) = (   0.8333333   0.6666667   0.3333333), wk =   0.0092593
        k(  103) = (   0.0000000   0.8333333   0.3333333), wk =   0.0092593
        k(  104) = (   0.1666667   0.8333333   0.3333333), wk =   0.0092593
        k(  105) = (   0.3333333   0.8333333   0.3333333), wk =   0.0092593
        k(  106) = (   0.5000000   0.8333333   0.3333333), wk =   0.0092593
        k(  107) = (   0.6666667   0.8333333   0.3333333), wk =   0.0092593
        k(  108) = (   0.8333333   0.8333333   0.3333333), wk =   0.0092593
        k(  109) = (   0.0000000   0.0000000   0.5000000), wk =   0.0092593
        k(  110) = (   0.1666667   0.0000000   0.5000000), wk =   0.0092593
        k(  111) = (   0.3333333   0.0000000   0.5000000), wk =   0.0092593
        k(  112) = (   0.5000000   0.0000000   0.5000000), wk =   0.0092593
        k(  113) = (   0.6666667   0.0000000   0.5000000), wk =   0.0092593
        k(  114) = (   0.8333333   0.0000000   0.5000000), wk =   0.0092593
        k(  115) = (   0.0000000   0.1666667   0.5000000), wk =   0.0092593
        k(  116) = (   0.1666667   0.1666667   0.5000000), wk =   0.0092593
        k(  117) = (   0.3333333   0.1666667   0.5000000), wk =   0.0092593
        k(  118) = (   0.5000000   0.1666667   0.5000000), wk =   0.0092593
        k(  119) = (   0.6666667   0.1666667   0.5000000), wk =   0.0092593
        k(  120) = (   0.8333333   0.1666667   0.5000000), wk =   0.0092593
        k(  121) = (   0.0000000   0.3333333   0.5000000), wk =   0.0092593
        k(  122) = (   0.1666667   0.3333333   0.5000000), wk =   0.0092593
        k(  123) = (   0.3333333   0.3333333   0.5000000), wk =   0.0092593
        k(  124) = (   0.5000000   0.3333333   0.5000000), wk =   0.0092593
        k(  125) = (   0.6666667   0.3333333   0.5000000), wk =   0.0092593
        k(  126) = (   0.8333333   0.3333333   0.5000000), wk =   0.0092593
        k(  127) = (   0.0000000   0.5000000   0.5000000), wk =   0.0092593
        k(  128) = (   0.1666667   0.5000000   0.5000000), wk =   0.0092593
        k(  129) = (   0.3333333   0.5000000   0.5000000), wk =   0.0092593
        k(  130) = (   0.5000000   0.5000000   0.5000000), wk =   0.0092593
        k(  131) = (   0.6666667   0.5000000   0.5000000), wk =   0.0092593
        k(  132) = (   0.8333333   0.5000000   0.5000000), wk =   0.0092593
        k(  133) = (   0.0000000   0.6666667   0.5000000), wk =   0.0092593
        k(  134) = (   0.1666667   0.6666667   0.5000000), wk =   0.0092593
        k(  135) = (   0.3333333   0.6666667   0.5000000), wk =   0.0092593
        k(  136) = (   0.5000000   0.6666667   0.5000000), wk =   0.0092593
        k(  137) = (   0.6666667   0.6666667   0.5000000), wk =   0.0092593
        k(  138) = (   0.8333333   0.6666667   0.5000000), wk =   0.0092593
        k(  139) = (   0.0000000   0.8333333   0.5000000), wk =   0.0092593
        k(  140) = (   0.1666667   0.8333333   0.5000000), wk =   0.0092593
        k(  141) = (   0.3333333   0.8333333   0.5000000), wk =   0.0092593
        k(  142) = (   0.5000000   0.8333333   0.5000000), wk =   0.0092593
        k(  143) = (   0.6666667   0.8333333   0.5000000), wk =   0.0092593
        k(  144) = (   0.8333333   0.8333333   0.5000000), wk =   0.0092593
        k(  145) = (   0.0000000   0.0000000   0.6666667), wk =   0.0092593
        k(  146) = (   0.1666667   0.0000000   0.6666667), wk =   0.0092593
        k(  147) = (   0.3333333   0.0000000   0.6666667), wk =   0.0092593
        k(  148) = (   0.5000000   0.0000000   0.6666667), wk =   0.0092593
        k(  149) = (   0.6666667   0.0000000   0.6666667), wk =   0.0092593
        k(  150) = (   0.8333333   0.0000000   0.6666667), wk =   0.0092593
        k(  151) = (   0.0000000   0.1666667   0.6666667), wk =   0.0092593
        k(  152) = (   0.1666667   0.1666667   0.6666667), wk =   0.0092593
        k(  153) = (   0.3333333   0.1666667   0.6666667), wk =   0.0092593
        k(  154) = (   0.5000000   0.1666667   0.6666667), wk =   0.0092593
        k(  155) = (   0.6666667   0.1666667   0.6666667), wk =   0.0092593
        k(  156) = (   0.8333333   0.1666667   0.6666667), wk =   0.0092593
        k(  157) = (   0.0000000   0.3333333   0.6666667), wk =   0.0092593
        k(  158) = (   0.1666667   0.3333333   0.6666667), wk =   0.0092593
        k(  159) = (   0.3333333   0.3333333   0.6666667), wk =   0.0092593
        k(  160) = (   0.5000000   0.3333333   0.6666667), wk =   0.0092593
        k(  161) = (   0.6666667   0.3333333   0.6666667), wk =   0.0092593
        k(  162) = (   0.8333333   0.3333333   0.6666667), wk =   0.0092593
        k(  163) = (   0.0000000   0.5000000   0.6666667), wk =   0.0092593
        k(  164) = (   0.1666667   0.5000000   0.6666667), wk =   0.0092593
        k(  165) = (   0.3333333   0.5000000   0.6666667), wk =   0.0092593
        k(  166) = (   0.5000000   0.5000000   0.6666667), wk =   0.0092593
        k(  167) = (   0.6666667   0.5000000   0.6666667), wk =   0.0092593
        k(  168) = (   0.8333333   0.5000000   0.6666667), wk =   0.0092593
        k(  169) = (   0.0000000   0.6666667   0.6666667), wk =   0.0092593
        k(  170) = (   0.1666667   0.6666667   0.6666667), wk =   0.0092593
        k(  171) = (   0.3333333   0.6666667   0.6666667), wk =   0.0092593
        k(  172) = (   0.5000000   0.6666667   0.6666667), wk =   0.0092593
        k(  173) = (   0.6666667   0.6666667   0.6666667), wk =   0.0092593
        k(  174) = (   0.8333333   0.6666667   0.6666667), wk =   0.0092593
        k(  175) = (   0.0000000   0.8333333   0.6666667), wk =   0.0092593
        k(  176) = (   0.1666667   0.8333333   0.6666667), wk =   0.0092593
        k(  177) = (   0.3333333   0.8333333   0.6666667), wk =   0.0092593
        k(  178) = (   0.5000000   0.8333333   0.6666667), wk =   0.0092593
        k(  179) = (   0.6666667   0.8333333   0.6666667), wk =   0.0092593
        k(  180) = (   0.8333333   0.8333333   0.6666667), wk =   0.0092593
        k(  181) = (   0.0000000   0.0000000   0.8333333), wk =   0.0092593
        k(  182) = (   0.1666667   0.0000000   0.8333333), wk =   0.0092593
        k(  183) = (   0.3333333   0.0000000   0.8333333), wk =   0.0092593
        k(  184) = (   0.5000000   0.0000000   0.8333333), wk =   0.0092593
        k(  185) = (   0.6666667   0.0000000   0.8333333), wk =   0.0092593
        k(  186) = (   0.8333333   0.0000000   0.8333333), wk =   0.0092593
        k(  187) = (   0.0000000   0.1666667   0.8333333), wk =   0.0092593
        k(  188) = (   0.1666667   0.1666667   0.8333333), wk =   0.0092593
        k(  189) = (   0.3333333   0.1666667   0.8333333), wk =   0.0092593
        k(  190) = (   0.5000000   0.1666667   0.8333333), wk =   0.0092593
        k(  191) = (   0.6666667   0.1666667   0.8333333), wk =   0.0092593
        k(  192) = (   0.8333333   0.1666667   0.8333333), wk =   0.0092593
        k(  193) = (   0.0000000   0.3333333   0.8333333), wk =   0.0092593
        k(  194) = (   0.1666667   0.3333333   0.8333333), wk =   0.0092593
        k(  195) = (   0.3333333   0.3333333   0.8333333), wk =   0.0092593
        k(  196) = (   0.5000000   0.3333333   0.8333333), wk =   0.0092593
        k(  197) = (   0.6666667   0.3333333   0.8333333), wk =   0.0092593
        k(  198) = (   0.8333333   0.3333333   0.8333333), wk =   0.0092593
        k(  199) = (   0.0000000   0.5000000   0.8333333), wk =   0.0092593
        k(  200) = (   0.1666667   0.5000000   0.8333333), wk =   0.0092593
        k(  201) = (   0.3333333   0.5000000   0.8333333), wk =   0.0092593
        k(  202) = (   0.5000000   0.5000000   0.8333333), wk =   0.0092593
        k(  203) = (   0.6666667   0.5000000   0.8333333), wk =   0.0092593
        k(  204) = (   0.8333333   0.5000000   0.8333333), wk =   0.0092593
        k(  205) = (   0.0000000   0.6666667   0.8333333), wk =   0.0092593
        k(  206) = (   0.1666667   0.6666667   0.8333333), wk =   0.0092593
        k(  207) = (   0.3333333   0.6666667   0.8333333), wk =   0.0092593
        k(  208) = (   0.5000000   0.6666667   0.8333333), wk =   0.0092593
        k(  209) = (   0.6666667   0.6666667   0.8333333), wk =   0.0092593
        k(  210) = (   0.8333333   0.6666667   0.8333333), wk =   0.0092593
        k(  211) = (   0.0000000   0.8333333   0.8333333), wk =   0.0092593
        k(  212) = (   0.1666667   0.8333333   0.8333333), wk =   0.0092593
        k(  213) = (   0.3333333   0.8333333   0.8333333), wk =   0.0092593
        k(  214) = (   0.5000000   0.8333333   0.8333333), wk =   0.0092593
        k(  215) = (   0.6666667   0.8333333   0.8333333), wk =   0.0092593
        k(  216) = (   0.8333333   0.8333333   0.8333333), wk =   0.0092593

     Dense  grid:    13133 G-vectors     FFT dimensions: (  30,  30,  30)

     Dynamical RAM for                 wfc:       0.40 MB

     Dynamical RAM for     wfc (w. buffer):       0.40 MB

     Dynamical RAM for           str. fact:       0.20 MB

     Dynamical RAM for           local pot:       0.00 MB

     Dynamical RAM for          nlocal pot:       1.59 MB

     Dynamical RAM for                qrad:       0.21 MB

     Dynamical RAM for          rho,v,vnew:       1.22 MB

     Dynamical RAM for           G-vectors:       0.85 MB

     Dynamical RAM for          h,s,v(r/c):       0.05 MB

     Dynamical RAM for          <psi|beta>:       0.02 MB

     Dynamical RAM for                 psi:       0.80 MB

     Dynamical RAM for                hpsi:       0.80 MB

     Dynamical RAM for                spsi:       0.80 MB

     Dynamical RAM for      wfcinit/wfcrot:       1.62 MB

     Dynamical RAM for           addusdens:       2.71 MB

     Estimated static dynamical RAM per process >       5.90 MB

     Estimated max dynamical RAM per process >       8.61 MB

     Estimated total dynamical RAM >      34.42 MB

     Check: negative core charge=   -0.000010

     The potential is recalculated from file :
     /home/ponet/.julia/dev/DFControl/docs/build/guide/Job2/outputs/Si.save/charge-density

     Starting wfcs are   32 randomized atomic wfcs
     Checking if some PAW data can be deallocated... 

     Band Structure Calculation
     Davidson diagonalization with overlap

     Computing kpt #:     1  of    54 on this pool
     total cpu time spent up to now is        0.6 secs

     Computing kpt #:     2  of    54 on this pool
     total cpu time spent up to now is        0.8 secs

     Computing kpt #:     3  of    54 on this pool
     total cpu time spent up to now is        1.0 secs

     Computing kpt #:     4  of    54 on this pool
     total cpu time spent up to now is        1.2 secs

     Computing kpt #:     5  of    54 on this pool
     total cpu time spent up to now is        1.4 secs

     Computing kpt #:     6  of    54 on this pool
     total cpu time spent up to now is        1.6 secs

     Computing kpt #:     7  of    54 on this pool
     total cpu time spent up to now is        1.8 secs

     Computing kpt #:     8  of    54 on this pool
     total cpu time spent up to now is        2.0 secs

     Computing kpt #:     9  of    54 on this pool
     total cpu time spent up to now is        2.2 secs

     Computing kpt #:    10  of    54 on this pool
     total cpu time spent up to now is        2.4 secs

     Computing kpt #:    11  of    54 on this pool
     total cpu time spent up to now is        2.6 secs

     Computing kpt #:    12  of    54 on this pool
     total cpu time spent up to now is        2.8 secs

     Computing kpt #:    13  of    54 on this pool
     total cpu time spent up to now is        3.0 secs

     Computing kpt #:    14  of    54 on this pool
     total cpu time spent up to now is        3.2 secs

     Computing kpt #:    15  of    54 on this pool
     total cpu time spent up to now is        3.3 secs

     Computing kpt #:    16  of    54 on this pool
     total cpu time spent up to now is        3.5 secs

     Computing kpt #:    17  of    54 on this pool
     total cpu time spent up to now is        3.7 secs

     Computing kpt #:    18  of    54 on this pool
     total cpu time spent up to now is        3.9 secs

     Computing kpt #:    19  of    54 on this pool
     total cpu time spent up to now is        4.1 secs

     Computing kpt #:    20  of    54 on this pool
     total cpu time spent up to now is        4.3 secs

     Computing kpt #:    21  of    54 on this pool
     total cpu time spent up to now is        4.5 secs

     Computing kpt #:    22  of    54 on this pool
     total cpu time spent up to now is        4.7 secs

     Computing kpt #:    23  of    54 on this pool
     total cpu time spent up to now is        4.8 secs

     Computing kpt #:    24  of    54 on this pool
     total cpu time spent up to now is        5.0 secs

     Computing kpt #:    25  of    54 on this pool
     total cpu time spent up to now is        5.2 secs

     Computing kpt #:    26  of    54 on this pool
     total cpu time spent up to now is        5.4 secs

     Computing kpt #:    27  of    54 on this pool
     total cpu time spent up to now is        5.6 secs

     Computing kpt #:    28  of    54 on this pool
     total cpu time spent up to now is        5.8 secs

     Computing kpt #:    29  of    54 on this pool
     total cpu time spent up to now is        6.0 secs

     Computing kpt #:    30  of    54 on this pool
     total cpu time spent up to now is        6.2 secs

     Computing kpt #:    31  of    54 on this pool
     total cpu time spent up to now is        6.4 secs

     Computing kpt #:    32  of    54 on this pool
     total cpu time spent up to now is        6.5 secs

     Computing kpt #:    33  of    54 on this pool
     total cpu time spent up to now is        6.7 secs

     Computing kpt #:    34  of    54 on this pool
     total cpu time spent up to now is        6.9 secs

     Computing kpt #:    35  of    54 on this pool
     total cpu time spent up to now is        7.1 secs

     Computing kpt #:    36  of    54 on this pool
     total cpu time spent up to now is        7.3 secs

     Computing kpt #:    37  of    54 on this pool
     total cpu time spent up to now is        7.5 secs

     Computing kpt #:    38  of    54 on this pool
     total cpu time spent up to now is        7.7 secs

     Computing kpt #:    39  of    54 on this pool
     total cpu time spent up to now is        7.9 secs

     Computing kpt #:    40  of    54 on this pool
     total cpu time spent up to now is        8.1 secs

     Computing kpt #:    41  of    54 on this pool
     total cpu time spent up to now is        8.3 secs

     Computing kpt #:    42  of    54 on this pool
     total cpu time spent up to now is        8.5 secs

     Computing kpt #:    43  of    54 on this pool
     total cpu time spent up to now is        8.7 secs

     Computing kpt #:    44  of    54 on this pool
     total cpu time spent up to now is        8.9 secs

     Computing kpt #:    45  of    54 on this pool
     total cpu time spent up to now is        9.0 secs

     Computing kpt #:    46  of    54 on this pool
     total cpu time spent up to now is        9.2 secs

     Computing kpt #:    47  of    54 on this pool
     total cpu time spent up to now is        9.4 secs

     Computing kpt #:    48  of    54 on this pool
     total cpu time spent up to now is        9.6 secs

     Computing kpt #:    49  of    54 on this pool
     total cpu time spent up to now is        9.8 secs

     Computing kpt #:    50  of    54 on this pool
     total cpu time spent up to now is       10.0 secs

     Computing kpt #:    51  of    54 on this pool
     total cpu time spent up to now is       10.2 secs

     Computing kpt #:    52  of    54 on this pool
     total cpu time spent up to now is       10.4 secs

     Computing kpt #:    53  of    54 on this pool
     total cpu time spent up to now is       10.5 secs

     Computing kpt #:    54  of    54 on this pool
     total cpu time spent up to now is       10.7 secs

     ethr =  3.12E-09,  avg # of iterations = 25.8

     total cpu time spent up to now is       10.7 secs

     End of band structure calculation

          k = 0.0000 0.0000 0.0000 (  1647 PWs)   bands (ev):

    -5.8294  -1.6690  -1.6690  -1.6690  -1.6689  -1.6689  -1.6668   3.2886
     3.2886   3.2886   3.2893   3.2893   3.2893   6.1733   6.1733   6.1733

     occupation numbers 
     1.0000   1.0000   1.0000   1.0000   1.0000   1.0000   1.0000   1.0000
     1.0000   1.0000   1.0000   1.0000   1.0000   1.0000   1.0000   1.0000

          k = 0.1667 0.0000 0.0000 (  1631 PWs)   bands (ev):

    -5.7075  -2.8842  -1.6295  -1.6295  -1.6294  -1.6280  -0.3080   2.9706
     2.9709   2.9709   2.9712   3.3993   3.3993   5.4728   5.7347   5.7347

     occupation numbers 
     1.0000   1.0000   1.0000   1.0000   1.0000   1.0000   1.0000   1.0000
     1.0000   1.0000   1.0000   1.0000   1.0000   1.0000   1.0000   1.0000

          k = 0.3333 0.0000 0.0000 (  1630 PWs)   bands (ev):

    -5.3435  -3.9178  -1.5447  -1.5447  -1.5446  -1.5431   1.1472   2.4708
     2.4710   2.4710   2.4711   3.7263   3.7263   4.1244   4.9616   4.9616

     occupation numbers 
     1.0000   1.0000   1.0000   1.0000   1.0000   1.0000   1.0000   1.0000
     1.0000   1.0000   1.0000   1.0000   1.0000   1.0000   1.0000   1.0000

          k = 0.5000 0.0000 0.0000 (  1654 PWs)   bands (ev):

    -4.7439  -4.7429  -1.4990  -1.4990  -1.4989  -1.4974   2.2575   2.2576
     2.2576   2.2577   2.6433   2.6436   4.2570   4.2570   4.2581   4.2581

     occupation numbers 
     1.0000   1.0000   1.0000   1.0000   1.0000   1.0000   1.0000   1.0000
     1.0000   1.0000   1.0000   1.0000   1.0000   1.0000   1.0000   1.0000

          k = 0.6667 0.0000 0.0000 (  1630 PWs)   bands (ev):

    -5.3435  -3.9178  -1.5447  -1.5447  -1.5446  -1.5431   1.1472   2.4708
     2.4710   2.4710   2.4711   3.7263   3.7263   4.1244   4.9616   4.9616

     occupation numbers 
     1.0000   1.0000   1.0000   1.0000   1.0000   1.0000   1.0000   1.0000
     1.0000   1.0000   1.0000   1.0000   1.0000   1.0000   1.0000   1.0000

          k = 0.8333 0.0000 0.0000 (  1631 PWs)   bands (ev):

    -5.7075  -2.8842  -1.6295  -1.6295  -1.6294  -1.6280  -0.3080   2.9706
     2.9709   2.9709   2.9712   3.3993   3.3993   5.4728   5.7347   5.7347

     occupation numbers 
     1.0000   1.0000   1.0000   1.0000   1.0000   1.0000   1.0000   1.0000
     1.0000   1.0000   1.0000   1.0000   1.0000   1.0000   1.0000   1.0000

          k = 0.0000 0.1667 0.0000 (  1631 PWs)   bands (ev):

    -5.7075  -2.8842  -1.6295  -1.6295  -1.6294  -1.6280  -0.3080   2.9706
     2.9709   2.9709   2.9712   3.3993   3.3993   5.4728   5.7347   5.7347

     occupation numbers 
     1.0000   1.0000   1.0000   1.0000   1.0000   1.0000   1.0000   1.0000
     1.0000   1.0000   1.0000   1.0000   1.0000   1.0000   1.0000   1.0000

          k = 0.1667 0.1667 0.0000 (  1638 PWs)   bands (ev):

    -5.5865  -2.8060  -2.8052  -1.8052  -1.4057  -0.3443  -0.3438   2.2676
     3.0058   3.0059   3.2056   3.2063   3.4838   4.5682   5.2900   6.0549

     occupation numbers 
     1.0000   1.0000   1.0000   1.0000   1.0000   1.0000   1.0000   1.0000
     1.0000   1.0000   1.0000   1.0000   1.0000   1.0000   1.0000   1.0000

          k = 0.3333 0.1667 0.0000 (  1627 PWs)   bands (ev):

    -5.2259  -3.8183  -2.5884  -2.0119  -1.1054  -0.4876   0.9706   1.8545
     2.3463   2.9733   3.2916   3.3603   3.4276   3.7279   4.5084   5.4576

     occupation numbers 
     1.0000   1.0000   1.0000   1.0000   1.0000   1.0000   1.0000   1.0000
     1.0000   1.0000   1.0000   1.0000   1.0000   1.0000   1.0000   1.0000

          k = 0.5000 0.1667 0.0000 (  1634 PWs)   bands (ev):

    -4.6327  -4.6317  -2.2929  -2.2920  -0.7668  -0.7663   1.8971   1.8973
     2.2355   2.2357   3.0447   3.0448   3.8053   3.8057   4.5234   4.5236

     occupation numbers 
     1.0000   1.0000   1.0000   1.0000   1.0000   1.0000   1.0000   1.0000
     1.0000   1.0000   1.0000   1.0000   1.0000   1.0000   1.0000   1.0000

          k = 0.6667 0.1667 0.0000 (  1627 PWs)   bands (ev):

    -5.2259  -3.8183  -2.5884  -2.0119  -1.1054  -0.4876   0.9706   1.8545
     2.3463   2.9733   3.2916   3.3603   3.4276   3.7279   4.5084   5.4576

     occupation numbers 
     1.0000   1.0000   1.0000   1.0000   1.0000   1.0000   1.0000   1.0000
     1.0000   1.0000   1.0000   1.0000   1.0000   1.0000   1.0000   1.0000

          k = 0.8333 0.1667 0.0000 (  1638 PWs)   bands (ev):

    -5.5865  -2.8060  -2.8052  -1.8052  -1.4057  -0.3443  -0.3438   2.2676
     3.0058   3.0059   3.2056   3.2063   3.4838   4.5682   5.2900   6.0549

     occupation numbers 
     1.0000   1.0000   1.0000   1.0000   1.0000   1.0000   1.0000   1.0000
     1.0000   1.0000   1.0000   1.0000   1.0000   1.0000   1.0000   1.0000

          k = 0.0000 0.3333 0.0000 (  1630 PWs)   bands (ev):

    -5.3435  -3.9178  -1.5447  -1.5447  -1.5446  -1.5431   1.1472   2.4708
     2.4710   2.4710   2.4711   3.7263   3.7263   4.1244   4.9616   4.9616

     occupation numbers 
     1.0000   1.0000   1.0000   1.0000   1.0000   1.0000   1.0000   1.0000
     1.0000   1.0000   1.0000   1.0000   1.0000   1.0000   1.0000   1.0000

          k = 0.1667 0.3333 0.0000 (  1627 PWs)   bands (ev):

    -5.2259  -3.8183  -2.5884  -2.0119  -1.1054  -0.4876   0.9706   1.8545
     2.3463   2.9733   3.2916   3.3603   3.4276   3.7279   4.5084   5.4576

     occupation numbers 
     1.0000   1.0000   1.0000   1.0000   1.0000   1.0000   1.0000   1.0000
     1.0000   1.0000   1.0000   1.0000   1.0000   1.0000   1.0000   1.0000

          k = 0.3333 0.3333 0.0000 (  1614 PWs)   bands (ev):

    -4.8759  -3.5295  -3.5287  -2.5453  -0.6219   0.5095   0.5097   1.6905
     2.4337   2.5475   2.5476   3.7172   3.8416   3.8426   4.0368   5.6034

     occupation numbers 
     1.0000   1.0000   1.0000   1.0000   1.0000   1.0000   1.0000   1.0000
     1.0000   1.0000   1.0000   1.0000   1.0000   1.0000   1.0000   1.0000

          k = 0.5000 0.3333 0.0000 (  1622 PWs)   bands (ev):

    -4.3043  -4.3032  -3.0834  -3.0824  -0.0673  -0.0670   1.4628   1.4629
     1.9572   1.9575   3.0229   3.0232   4.0662   4.0664   4.8826   4.8828

     occupation numbers 
     1.0000   1.0000   1.0000   1.0000   1.0000   1.0000   1.0000   1.0000
     1.0000   1.0000   1.0000   1.0000   1.0000   1.0000   1.0000   1.0000

          k = 0.6667 0.3333 0.0000 (  1614 PWs)   bands (ev):

    -4.8759  -3.5295  -3.5287  -2.5453  -0.6219   0.5095   0.5097   1.6905
     2.4337   2.5475   2.5476   3.7172   3.8416   3.8426   4.0368   5.6034

     occupation numbers 
     1.0000   1.0000   1.0000   1.0000   1.0000   1.0000   1.0000   1.0000
     1.0000   1.0000   1.0000   1.0000   1.0000   1.0000   1.0000   1.0000

          k = 0.8333 0.3333 0.0000 (  1627 PWs)   bands (ev):

    -5.2259  -3.8183  -2.5884  -2.0119  -1.1054  -0.4876   0.9706   1.8545
     2.3463   2.9733   3.2916   3.3603   3.4276   3.7279   4.5084   5.4576

     occupation numbers 
     1.0000   1.0000   1.0000   1.0000   1.0000   1.0000   1.0000   1.0000
     1.0000   1.0000   1.0000   1.0000   1.0000   1.0000   1.0000   1.0000

          k = 0.0000 0.5000 0.0000 (  1654 PWs)   bands (ev):

    -4.7439  -4.7429  -1.4990  -1.4990  -1.4989  -1.4974   2.2575   2.2576
     2.2576   2.2577   2.6433   2.6436   4.2570   4.2570   4.2581   4.2581

     occupation numbers 
     1.0000   1.0000   1.0000   1.0000   1.0000   1.0000   1.0000   1.0000
     1.0000   1.0000   1.0000   1.0000   1.0000   1.0000   1.0000   1.0000

          k = 0.1667 0.5000 0.0000 (  1634 PWs)   bands (ev):

    -4.6327  -4.6317  -2.2929  -2.2920  -0.7668  -0.7663   1.8971   1.8973
     2.2355   2.2357   3.0447   3.0448   3.8053   3.8057   4.5234   4.5236

     occupation numbers 
     1.0000   1.0000   1.0000   1.0000   1.0000   1.0000   1.0000   1.0000
     1.0000   1.0000   1.0000   1.0000   1.0000   1.0000   1.0000   1.0000

          k = 0.3333 0.5000 0.0000 (  1622 PWs)   bands (ev):

    -4.3043  -4.3032  -3.0834  -3.0824  -0.0673  -0.0670   1.4628   1.4629
     1.9572   1.9575   3.0229   3.0232   4.0662   4.0664   4.8826   4.8828

     occupation numbers 
     1.0000   1.0000   1.0000   1.0000   1.0000   1.0000   1.0000   1.0000
     1.0000   1.0000   1.0000   1.0000   1.0000   1.0000   1.0000   1.0000

          k = 0.5000 0.5000 0.0000 (  1628 PWs)   bands (ev):

    -3.7759  -3.7757  -3.7757  -3.7739   0.6684   0.6684   0.6685   0.6687
     2.3603   2.3608   2.3608   2.3611   4.8292   4.8297   4.8305   4.8305

     occupation numbers 
     1.0000   1.0000   1.0000   1.0000   1.0000   1.0000   1.0000   1.0000
     1.0000   1.0000   1.0000   1.0000   1.0000   1.0000   1.0000   1.0000

          k = 0.6667 0.5000 0.0000 (  1622 PWs)   bands (ev):

    -4.3043  -4.3032  -3.0834  -3.0824  -0.0673  -0.0670   1.4628   1.4629
     1.9572   1.9575   3.0229   3.0232   4.0662   4.0664   4.8826   4.8828

     occupation numbers 
     1.0000   1.0000   1.0000   1.0000   1.0000   1.0000   1.0000   1.0000
     1.0000   1.0000   1.0000   1.0000   1.0000   1.0000   1.0000   1.0000

          k = 0.8333 0.5000 0.0000 (  1634 PWs)   bands (ev):

    -4.6327  -4.6317  -2.2929  -2.2920  -0.7668  -0.7663   1.8971   1.8973
     2.2355   2.2357   3.0447   3.0448   3.8053   3.8057   4.5234   4.5236

     occupation numbers 
     1.0000   1.0000   1.0000   1.0000   1.0000   1.0000   1.0000   1.0000
     1.0000   1.0000   1.0000   1.0000   1.0000   1.0000   1.0000   1.0000

          k = 0.0000 0.6667 0.0000 (  1630 PWs)   bands (ev):

    -5.3435  -3.9178  -1.5447  -1.5447  -1.5446  -1.5431   1.1472   2.4708
     2.4710   2.4710   2.4711   3.7263   3.7263   4.1244   4.9616   4.9616

     occupation numbers 
     1.0000   1.0000   1.0000   1.0000   1.0000   1.0000   1.0000   1.0000
     1.0000   1.0000   1.0000   1.0000   1.0000   1.0000   1.0000   1.0000

          k = 0.1667 0.6667 0.0000 (  1627 PWs)   bands (ev):

    -5.2259  -3.8183  -2.5884  -2.0119  -1.1054  -0.4876   0.9706   1.8545
     2.3463   2.9733   3.2916   3.3603   3.4276   3.7279   4.5084   5.4576

     occupation numbers 
     1.0000   1.0000   1.0000   1.0000   1.0000   1.0000   1.0000   1.0000
     1.0000   1.0000   1.0000   1.0000   1.0000   1.0000   1.0000   1.0000

          k = 0.3333 0.6667 0.0000 (  1614 PWs)   bands (ev):

    -4.8759  -3.5295  -3.5287  -2.5453  -0.6219   0.5095   0.5097   1.6905
     2.4337   2.5475   2.5476   3.7172   3.8416   3.8426   4.0368   5.6034

     occupation numbers 
     1.0000   1.0000   1.0000   1.0000   1.0000   1.0000   1.0000   1.0000
     1.0000   1.0000   1.0000   1.0000   1.0000   1.0000   1.0000   1.0000

          k = 0.5000 0.6667 0.0000 (  1622 PWs)   bands (ev):

    -4.3043  -4.3032  -3.0834  -3.0824  -0.0673  -0.0670   1.4628   1.4629
     1.9572   1.9575   3.0229   3.0232   4.0662   4.0664   4.8826   4.8828

     occupation numbers 
     1.0000   1.0000   1.0000   1.0000   1.0000   1.0000   1.0000   1.0000
     1.0000   1.0000   1.0000   1.0000   1.0000   1.0000   1.0000   1.0000

          k = 0.6667 0.6667 0.0000 (  1614 PWs)   bands (ev):

    -4.8759  -3.5295  -3.5287  -2.5453  -0.6219   0.5095   0.5097   1.6905
     2.4337   2.5475   2.5476   3.7172   3.8416   3.8426   4.0368   5.6034

     occupation numbers 
     1.0000   1.0000   1.0000   1.0000   1.0000   1.0000   1.0000   1.0000
     1.0000   1.0000   1.0000   1.0000   1.0000   1.0000   1.0000   1.0000

          k = 0.8333 0.6667 0.0000 (  1627 PWs)   bands (ev):

    -5.2259  -3.8183  -2.5884  -2.0119  -1.1054  -0.4876   0.9706   1.8545
     2.3463   2.9733   3.2916   3.3603   3.4276   3.7279   4.5084   5.4576

     occupation numbers 
     1.0000   1.0000   1.0000   1.0000   1.0000   1.0000   1.0000   1.0000
     1.0000   1.0000   1.0000   1.0000   1.0000   1.0000   1.0000   1.0000

          k = 0.0000 0.8333 0.0000 (  1631 PWs)   bands (ev):

    -5.7075  -2.8842  -1.6295  -1.6295  -1.6294  -1.6280  -0.3080   2.9706
     2.9709   2.9709   2.9712   3.3993   3.3993   5.4728   5.7347   5.7347

     occupation numbers 
     1.0000   1.0000   1.0000   1.0000   1.0000   1.0000   1.0000   1.0000
     1.0000   1.0000   1.0000   1.0000   1.0000   1.0000   1.0000   1.0000

          k = 0.1667 0.8333 0.0000 (  1638 PWs)   bands (ev):

    -5.5865  -2.8060  -2.8052  -1.8052  -1.4057  -0.3443  -0.3438   2.2676
     3.0058   3.0059   3.2056   3.2063   3.4838   4.5682   5.2900   6.0549

     occupation numbers 
     1.0000   1.0000   1.0000   1.0000   1.0000   1.0000   1.0000   1.0000
     1.0000   1.0000   1.0000   1.0000   1.0000   1.0000   1.0000   1.0000

          k = 0.3333 0.8333 0.0000 (  1627 PWs)   bands (ev):

    -5.2259  -3.8183  -2.5884  -2.0119  -1.1054  -0.4876   0.9706   1.8545
     2.3463   2.9733   3.2916   3.3603   3.4276   3.7279   4.5084   5.4576

     occupation numbers 
     1.0000   1.0000   1.0000   1.0000   1.0000   1.0000   1.0000   1.0000
     1.0000   1.0000   1.0000   1.0000   1.0000   1.0000   1.0000   1.0000

          k = 0.5000 0.8333 0.0000 (  1634 PWs)   bands (ev):

    -4.6327  -4.6317  -2.2929  -2.2920  -0.7668  -0.7663   1.8971   1.8973
     2.2355   2.2357   3.0447   3.0448   3.8053   3.8057   4.5234   4.5236

     occupation numbers 
     1.0000   1.0000   1.0000   1.0000   1.0000   1.0000   1.0000   1.0000
     1.0000   1.0000   1.0000   1.0000   1.0000   1.0000   1.0000   1.0000

          k = 0.6667 0.8333 0.0000 (  1627 PWs)   bands (ev):

    -5.2259  -3.8183  -2.5884  -2.0119  -1.1054  -0.4876   0.9706   1.8545
     2.3463   2.9733   3.2916   3.3603   3.4276   3.7279   4.5084   5.4576

     occupation numbers 
     1.0000   1.0000   1.0000   1.0000   1.0000   1.0000   1.0000   1.0000
     1.0000   1.0000   1.0000   1.0000   1.0000   1.0000   1.0000   1.0000

          k = 0.8333 0.8333 0.0000 (  1638 PWs)   bands (ev):

    -5.5865  -2.8060  -2.8052  -1.8052  -1.4057  -0.3443  -0.3438   2.2676
     3.0058   3.0059   3.2056   3.2063   3.4838   4.5682   5.2900   6.0549

     occupation numbers 
     1.0000   1.0000   1.0000   1.0000   1.0000   1.0000   1.0000   1.0000
     1.0000   1.0000   1.0000   1.0000   1.0000   1.0000   1.0000   1.0000

          k = 0.0000 0.0000 0.1667 (  1631 PWs)   bands (ev):

    -5.7075  -2.8842  -1.6295  -1.6295  -1.6294  -1.6280  -0.3080   2.9706
     2.9709   2.9709   2.9712   3.3993   3.3993   5.4728   5.7347   5.7347

     occupation numbers 
     1.0000   1.0000   1.0000   1.0000   1.0000   1.0000   1.0000   1.0000
     1.0000   1.0000   1.0000   1.0000   1.0000   1.0000   1.0000   1.0000

          k = 0.1667 0.0000 0.1667 (  1638 PWs)   bands (ev):

    -5.5865  -2.8060  -2.8052  -1.8052  -1.4057  -0.3443  -0.3438   2.2676
     3.0058   3.0059   3.2056   3.2063   3.4838   4.5682   5.2900   6.0549

     occupation numbers 
     1.0000   1.0000   1.0000   1.0000   1.0000   1.0000   1.0000   1.0000
     1.0000   1.0000   1.0000   1.0000   1.0000   1.0000   1.0000   1.0000

          k = 0.3333 0.0000 0.1667 (  1627 PWs)   bands (ev):

    -5.2259  -3.8183  -2.5884  -2.0119  -1.1054  -0.4876   0.9706   1.8545
     2.3463   2.9733   3.2916   3.3603   3.4276   3.7279   4.5084   5.4576

     occupation numbers 
     1.0000   1.0000   1.0000   1.0000   1.0000   1.0000   1.0000   1.0000
     1.0000   1.0000   1.0000   1.0000   1.0000   1.0000   1.0000   1.0000

          k = 0.5000 0.0000 0.1667 (  1634 PWs)   bands (ev):

    -4.6327  -4.6317  -2.2929  -2.2920  -0.7668  -0.7663   1.8971   1.8973
     2.2355   2.2357   3.0447   3.0448   3.8053   3.8057   4.5234   4.5236

     occupation numbers 
     1.0000   1.0000   1.0000   1.0000   1.0000   1.0000   1.0000   1.0000
     1.0000   1.0000   1.0000   1.0000   1.0000   1.0000   1.0000   1.0000

          k = 0.6667 0.0000 0.1667 (  1627 PWs)   bands (ev):

    -5.2259  -3.8183  -2.5884  -2.0119  -1.1054  -0.4876   0.9706   1.8545
     2.3463   2.9733   3.2916   3.3603   3.4276   3.7279   4.5084   5.4576

     occupation numbers 
     1.0000   1.0000   1.0000   1.0000   1.0000   1.0000   1.0000   1.0000
     1.0000   1.0000   1.0000   1.0000   1.0000   1.0000   1.0000   1.0000

          k = 0.8333 0.0000 0.1667 (  1638 PWs)   bands (ev):

    -5.5865  -2.8060  -2.8052  -1.8052  -1.4057  -0.3443  -0.3438   2.2676
     3.0058   3.0059   3.2056   3.2063   3.4838   4.5682   5.2900   6.0549

     occupation numbers 
     1.0000   1.0000   1.0000   1.0000   1.0000   1.0000   1.0000   1.0000
     1.0000   1.0000   1.0000   1.0000   1.0000   1.0000   1.0000   1.0000

          k = 0.0000 0.1667 0.1667 (  1638 PWs)   bands (ev):

    -5.5865  -2.8060  -2.8052  -1.8052  -1.4057  -0.3443  -0.3438   2.2676
     3.0058   3.0059   3.2056   3.2063   3.4838   4.5682   5.2900   6.0549

     occupation numbers 
     1.0000   1.0000   1.0000   1.0000   1.0000   1.0000   1.0000   1.0000
     1.0000   1.0000   1.0000   1.0000   1.0000   1.0000   1.0000   1.0000

          k = 0.1667 0.1667 0.1667 (  1629 PWs)   bands (ev):

    -5.4668  -2.7475  -2.7475  -2.7464  -0.4124  -0.4124  -0.4118   2.4845
     2.4845   2.4850   3.5892   3.5897   3.5897   3.7666   5.7163   5.7163

     occupation numbers 
     1.0000   1.0000   1.0000   1.0000   1.0000   1.0000   1.0000   1.0000
     1.0000   1.0000   1.0000   1.0000   1.0000   1.0000   1.0000   1.0000

          k = 0.3333 0.1667 0.1667 (  1636 PWs)   bands (ev):

    -5.1101  -3.7262  -2.6139  -2.6130  -0.5890  -0.5887   0.6948   2.1636
     2.1642   2.7146   3.1397   3.5148   3.5150   3.9022   5.0491   5.2307

     occupation numbers 
     1.0000   1.0000   1.0000   1.0000   1.0000   1.0000   1.0000   1.0000
     1.0000   1.0000   1.0000   1.0000   1.0000   1.0000   1.0000   1.0000

          k = 0.5000 0.1667 0.1667 (  1622 PWs)   bands (ev):

    -4.5250  -4.5239  -2.5352  -2.5343  -0.6995  -0.6993   1.7096   1.7101
     2.1037   2.1044   3.3674   3.3674   4.1495   4.1499   4.4034   4.4046

     occupation numbers 
     1.0000   1.0000   1.0000   1.0000   1.0000   1.0000   1.0000   1.0000
     1.0000   1.0000   1.0000   1.0000   1.0000   1.0000   1.0000   1.0000

          k = 0.6667 0.1667 0.1667 (  1636 PWs)   bands (ev):

    -5.1101  -3.7262  -2.6139  -2.6130  -0.5890  -0.5887   0.6948   2.1636
     2.1642   2.7146   3.1397   3.5148   3.5150   3.9022   5.0491   5.2307

     occupation numbers 
     1.0000   1.0000   1.0000   1.0000   1.0000   1.0000   1.0000   1.0000
     1.0000   1.0000   1.0000   1.0000   1.0000   1.0000   1.0000   1.0000

          k = 0.8333 0.1667 0.1667 (  1629 PWs)   bands (ev):

    -5.4668  -2.7475  -2.7475  -2.7464  -0.4124  -0.4124  -0.4118   2.4845
     2.4845   2.4850   3.5892   3.5897   3.5897   3.7666   5.7163   5.7163

     occupation numbers 
     1.0000   1.0000   1.0000   1.0000   1.0000   1.0000   1.0000   1.0000
     1.0000   1.0000   1.0000   1.0000   1.0000   1.0000   1.0000   1.0000

          k = 0.0000 0.3333 0.1667 (  1627 PWs)   bands (ev):

    -5.2259  -3.8183  -2.5884  -2.0119  -1.1054  -0.4876   0.9706   1.8545
     2.3463   2.9733   3.2916   3.3603   3.4276   3.7279   4.5084   5.4576

     occupation numbers 
     1.0000   1.0000   1.0000   1.0000   1.0000   1.0000   1.0000   1.0000
     1.0000   1.0000   1.0000   1.0000   1.0000   1.0000   1.0000   1.0000

          k = 0.1667 0.3333 0.1667 (  1636 PWs)   bands (ev):

    -5.1101  -3.7262  -2.6139  -2.6130  -0.5890  -0.5887   0.6948   2.1636
     2.1642   2.7146   3.1397   3.5148   3.5150   3.9022   5.0491   5.2307

     occupation numbers 
     1.0000   1.0000   1.0000   1.0000   1.0000   1.0000   1.0000   1.0000
     1.0000   1.0000   1.0000   1.0000   1.0000   1.0000   1.0000   1.0000

          k = 0.3333 0.3333 0.1667 (  1631 PWs)   bands (ev):

    -4.7666  -3.4669  -3.4661  -2.7675  -0.6603   0.1159   0.1160   1.7370
     2.2192   2.9033   2.9035   4.0155   4.0163   4.1243   4.4560   5.4830

     occupation numbers 
     1.0000   1.0000   1.0000   1.0000   1.0000   1.0000   1.0000   1.0000
     1.0000   1.0000   1.0000   1.0000   1.0000   1.0000   1.0000   1.0000

          k = 0.5000 0.3333 0.1667 (  1626 PWs)   bands (ev):

    -4.2092  -4.2082  -3.1011  -3.1002  -0.4099  -0.4095   0.8671   0.8677
     2.5346   2.5354   3.7012   3.7017   4.1730   4.1731   4.8466   4.8469

     occupation numbers 
     1.0000   1.0000   1.0000   1.0000   1.0000   1.0000   1.0000   1.0000
     1.0000   1.0000   1.0000   1.0000   1.0000   1.0000   1.0000   1.0000

          k = 0.6667 0.3333 0.1667 (  1631 PWs)   bands (ev):

    -4.7666  -3.4669  -3.4661  -2.7675  -0.6603   0.1159   0.1160   1.7370
     2.2192   2.9033   2.9035   4.0155   4.0163   4.1243   4.4560   5.4830

     occupation numbers 
     1.0000   1.0000   1.0000   1.0000   1.0000   1.0000   1.0000   1.0000
     1.0000   1.0000   1.0000   1.0000   1.0000   1.0000   1.0000   1.0000

          k = 0.8333 0.3333 0.1667 (  1636 PWs)   bands (ev):

    -5.1101  -3.7262  -2.6139  -2.6130  -0.5890  -0.5887   0.6948   2.1636
     2.1642   2.7146   3.1397   3.5148   3.5150   3.9022   5.0491   5.2307

     occupation numbers 
     1.0000   1.0000   1.0000   1.0000   1.0000   1.0000   1.0000   1.0000
     1.0000   1.0000   1.0000   1.0000   1.0000   1.0000   1.0000   1.0000

          k = 0.0000 0.5000 0.1667 (  1634 PWs)   bands (ev):

    -4.6327  -4.6317  -2.2929  -2.2920  -0.7668  -0.7663   1.8971   1.8973
     2.2355   2.2357   3.0447   3.0448   3.8053   3.8057   4.5234   4.5236

     occupation numbers 
     1.0000   1.0000   1.0000   1.0000   1.0000   1.0000   1.0000   1.0000
     1.0000   1.0000   1.0000   1.0000   1.0000   1.0000   1.0000   1.0000

          k = 0.1667 0.5000 0.1667 (  1622 PWs)   bands (ev):

    -4.5250  -4.5239  -2.5352  -2.5343  -0.6995  -0.6993   1.7096   1.7101
     2.1037   2.1044   3.3674   3.3674   4.1495   4.1499   4.4034   4.4046

     occupation numbers 
     1.0000   1.0000   1.0000   1.0000   1.0000   1.0000   1.0000   1.0000
     1.0000   1.0000   1.0000   1.0000   1.0000   1.0000   1.0000   1.0000

          k = 0.3333 0.5000 0.1667 (  1626 PWs)   bands (ev):

    -4.2092  -4.2082  -3.1011  -3.1002  -0.4099  -0.4095   0.8671   0.8677
     2.5346   2.5354   3.7012   3.7017   4.1730   4.1731   4.8466   4.8469

     occupation numbers 
     1.0000   1.0000   1.0000   1.0000   1.0000   1.0000   1.0000   1.0000
     1.0000   1.0000   1.0000   1.0000   1.0000   1.0000   1.0000   1.0000

          k = 0.5000 0.5000 0.1667 (  1640 PWs)   bands (ev):

    -3.7124  -3.7122  -3.7122  -3.7104   0.1272   0.1277   0.1277   0.1283
     3.0809   3.0817   3.0817   3.0824   4.8602   4.8607   4.8616   4.8616

     occupation numbers 
     1.0000   1.0000   1.0000   1.0000   1.0000   1.0000   1.0000   1.0000
     1.0000   1.0000   1.0000   1.0000   1.0000   1.0000   1.0000   1.0000

          k = 0.6667 0.5000 0.1667 (  1626 PWs)   bands (ev):

    -4.2092  -4.2082  -3.1011  -3.1002  -0.4099  -0.4095   0.8671   0.8677
     2.5346   2.5354   3.7012   3.7017   4.1730   4.1731   4.8466   4.8469

     occupation numbers 
     1.0000   1.0000   1.0000   1.0000   1.0000   1.0000   1.0000   1.0000
     1.0000   1.0000   1.0000   1.0000   1.0000   1.0000   1.0000   1.0000

          k = 0.8333 0.5000 0.1667 (  1622 PWs)   bands (ev):

    -4.5250  -4.5239  -2.5352  -2.5343  -0.6995  -0.6993   1.7096   1.7101
     2.1037   2.1044   3.3674   3.3674   4.1495   4.1499   4.4034   4.4046

     occupation numbers 
     1.0000   1.0000   1.0000   1.0000   1.0000   1.0000   1.0000   1.0000
     1.0000   1.0000   1.0000   1.0000   1.0000   1.0000   1.0000   1.0000

          k = 0.0000 0.6667 0.1667 (  1627 PWs)   bands (ev):

    -5.2259  -3.8183  -2.5884  -2.0119  -1.1054  -0.4876   0.9706   1.8545
     2.3463   2.9733   3.2916   3.3603   3.4276   3.7279   4.5084   5.4576

     occupation numbers 
     1.0000   1.0000   1.0000   1.0000   1.0000   1.0000   1.0000   1.0000
     1.0000   1.0000   1.0000   1.0000   1.0000   1.0000   1.0000   1.0000

          k = 0.1667 0.6667 0.1667 (  1636 PWs)   bands (ev):

    -5.1101  -3.7262  -2.6139  -2.6130  -0.5890  -0.5887   0.6948   2.1636
     2.1642   2.7146   3.1397   3.5148   3.5150   3.9022   5.0491   5.2307

     occupation numbers 
     1.0000   1.0000   1.0000   1.0000   1.0000   1.0000   1.0000   1.0000
     1.0000   1.0000   1.0000   1.0000   1.0000   1.0000   1.0000   1.0000

          k = 0.3333 0.6667 0.1667 (  1631 PWs)   bands (ev):

    -4.7666  -3.4669  -3.4661  -2.7675  -0.6603   0.1159   0.1160   1.7370
     2.2192   2.9033   2.9035   4.0155   4.0163   4.1243   4.4560   5.4830

     occupation numbers 
     1.0000   1.0000   1.0000   1.0000   1.0000   1.0000   1.0000   1.0000
     1.0000   1.0000   1.0000   1.0000   1.0000   1.0000   1.0000   1.0000

          k = 0.5000 0.6667 0.1667 (  1626 PWs)   bands (ev):

    -4.2092  -4.2082  -3.1011  -3.1002  -0.4099  -0.4095   0.8671   0.8677
     2.5346   2.5354   3.7012   3.7017   4.1730   4.1731   4.8466   4.8469

     occupation numbers 
[...]
     1.0000   1.0000   1.0000   1.0000   1.0000   1.0000   1.0000   1.0000

          k = 0.6667 0.6667 0.6667 (  1634 PWs)   bands (ev):

    -4.4457  -3.3229  -3.3229  -3.3216  -0.4774  -0.4773  -0.4773   0.7968
     3.3569   3.3569   3.3580   4.3754   4.3760   4.3760   5.1611   5.1611

     occupation numbers 
     1.0000   1.0000   1.0000   1.0000   1.0000   1.0000   1.0000   1.0000
     1.0000   1.0000   1.0000   1.0000   1.0000   1.0000   1.0000   1.0000

          k = 0.8333 0.6667 0.6667 (  1631 PWs)   bands (ev):

    -4.7666  -3.4669  -3.4661  -2.7675  -0.6603   0.1159   0.1160   1.7370
     2.2192   2.9033   2.9035   4.0155   4.0163   4.1243   4.4560   5.4830

     occupation numbers 
     1.0000   1.0000   1.0000   1.0000   1.0000   1.0000   1.0000   1.0000
     1.0000   1.0000   1.0000   1.0000   1.0000   1.0000   1.0000   1.0000

          k = 0.0000 0.8333 0.6667 (  1627 PWs)   bands (ev):

    -5.2259  -3.8183  -2.5884  -2.0119  -1.1054  -0.4876   0.9706   1.8545
     2.3463   2.9733   3.2916   3.3603   3.4276   3.7279   4.5084   5.4576

     occupation numbers 
     1.0000   1.0000   1.0000   1.0000   1.0000   1.0000   1.0000   1.0000
     1.0000   1.0000   1.0000   1.0000   1.0000   1.0000   1.0000   1.0000

          k = 0.1667 0.8333 0.6667 (  1636 PWs)   bands (ev):

    -5.1101  -3.7262  -2.6139  -2.6130  -0.5890  -0.5887   0.6948   2.1636
     2.1642   2.7146   3.1397   3.5148   3.5150   3.9022   5.0491   5.2307

     occupation numbers 
     1.0000   1.0000   1.0000   1.0000   1.0000   1.0000   1.0000   1.0000
     1.0000   1.0000   1.0000   1.0000   1.0000   1.0000   1.0000   1.0000

          k = 0.3333 0.8333 0.6667 (  1631 PWs)   bands (ev):

    -4.7666  -3.4669  -3.4661  -2.7675  -0.6603   0.1159   0.1160   1.7370
     2.2192   2.9033   2.9035   4.0155   4.0163   4.1243   4.4560   5.4830

     occupation numbers 
     1.0000   1.0000   1.0000   1.0000   1.0000   1.0000   1.0000   1.0000
     1.0000   1.0000   1.0000   1.0000   1.0000   1.0000   1.0000   1.0000

          k = 0.5000 0.8333 0.6667 (  1626 PWs)   bands (ev):

    -4.2092  -4.2082  -3.1011  -3.1002  -0.4099  -0.4095   0.8671   0.8677
     2.5346   2.5354   3.7012   3.7017   4.1730   4.1731   4.8466   4.8469

     occupation numbers 
     1.0000   1.0000   1.0000   1.0000   1.0000   1.0000   1.0000   1.0000
     1.0000   1.0000   1.0000   1.0000   1.0000   1.0000   1.0000   1.0000

          k = 0.6667 0.8333 0.6667 (  1631 PWs)   bands (ev):

    -4.7666  -3.4669  -3.4661  -2.7675  -0.6603   0.1159   0.1160   1.7370
     2.2192   2.9033   2.9034   4.0155   4.0163   4.1243   4.4560   5.4830

     occupation numbers 
     1.0000   1.0000   1.0000   1.0000   1.0000   1.0000   1.0000   1.0000
     1.0000   1.0000   1.0000   1.0000   1.0000   1.0000   1.0000   1.0000

          k = 0.8333 0.8333 0.6667 (  1636 PWs)   bands (ev):

    -5.1101  -3.7262  -2.6139  -2.6130  -0.5890  -0.5887   0.6948   2.1636
     2.1642   2.7146   3.1397   3.5148   3.5150   3.9022   5.0491   5.2307

     occupation numbers 
     1.0000   1.0000   1.0000   1.0000   1.0000   1.0000   1.0000   1.0000
     1.0000   1.0000   1.0000   1.0000   1.0000   1.0000   1.0000   1.0000

          k = 0.0000 0.0000 0.8333 (  1631 PWs)   bands (ev):

    -5.7075  -2.8842  -1.6295  -1.6295  -1.6294  -1.6280  -0.3080   2.9706
     2.9709   2.9709   2.9712   3.3993   3.3993   5.4728   5.7347   5.7347

     occupation numbers 
     1.0000   1.0000   1.0000   1.0000   1.0000   1.0000   1.0000   1.0000
     1.0000   1.0000   1.0000   1.0000   1.0000   1.0000   1.0000   1.0000

          k = 0.1667 0.0000 0.8333 (  1638 PWs)   bands (ev):

    -5.5865  -2.8060  -2.8052  -1.8052  -1.4057  -0.3443  -0.3438   2.2676
     3.0058   3.0059   3.2056   3.2063   3.4838   4.5682   5.2900   6.0549

     occupation numbers 
     1.0000   1.0000   1.0000   1.0000   1.0000   1.0000   1.0000   1.0000
     1.0000   1.0000   1.0000   1.0000   1.0000   1.0000   1.0000   1.0000

          k = 0.3333 0.0000 0.8333 (  1627 PWs)   bands (ev):

    -5.2259  -3.8183  -2.5884  -2.0119  -1.1054  -0.4876   0.9706   1.8545
     2.3463   2.9733   3.2916   3.3603   3.4276   3.7279   4.5084   5.4576

     occupation numbers 
     1.0000   1.0000   1.0000   1.0000   1.0000   1.0000   1.0000   1.0000
     1.0000   1.0000   1.0000   1.0000   1.0000   1.0000   1.0000   1.0000

          k = 0.5000 0.0000 0.8333 (  1634 PWs)   bands (ev):

    -4.6327  -4.6317  -2.2929  -2.2920  -0.7668  -0.7663   1.8971   1.8973
     2.2355   2.2357   3.0447   3.0448   3.8053   3.8057   4.5234   4.5236

     occupation numbers 
     1.0000   1.0000   1.0000   1.0000   1.0000   1.0000   1.0000   1.0000
     1.0000   1.0000   1.0000   1.0000   1.0000   1.0000   1.0000   1.0000

          k = 0.6667 0.0000 0.8333 (  1627 PWs)   bands (ev):

    -5.2259  -3.8183  -2.5884  -2.0119  -1.1054  -0.4876   0.9706   1.8545
     2.3463   2.9733   3.2916   3.3603   3.4276   3.7279   4.5084   5.4576

     occupation numbers 
     1.0000   1.0000   1.0000   1.0000   1.0000   1.0000   1.0000   1.0000
     1.0000   1.0000   1.0000   1.0000   1.0000   1.0000   1.0000   1.0000

          k = 0.8333 0.0000 0.8333 (  1638 PWs)   bands (ev):

    -5.5865  -2.8060  -2.8052  -1.8052  -1.4057  -0.3443  -0.3438   2.2676
     3.0058   3.0059   3.2056   3.2063   3.4838   4.5682   5.2900   6.0549

     occupation numbers 
     1.0000   1.0000   1.0000   1.0000   1.0000   1.0000   1.0000   1.0000
     1.0000   1.0000   1.0000   1.0000   1.0000   1.0000   1.0000   1.0000

          k = 0.0000 0.1667 0.8333 (  1638 PWs)   bands (ev):

    -5.5865  -2.8060  -2.8052  -1.8052  -1.4057  -0.3443  -0.3438   2.2676
     3.0058   3.0059   3.2056   3.2063   3.4838   4.5682   5.2900   6.0549

     occupation numbers 
     1.0000   1.0000   1.0000   1.0000   1.0000   1.0000   1.0000   1.0000
     1.0000   1.0000   1.0000   1.0000   1.0000   1.0000   1.0000   1.0000

          k = 0.1667 0.1667 0.8333 (  1629 PWs)   bands (ev):

    -5.4668  -2.7475  -2.7475  -2.7464  -0.4124  -0.4124  -0.4118   2.4845
     2.4845   2.4850   3.5892   3.5897   3.5897   3.7666   5.7163   5.7163

     occupation numbers 
     1.0000   1.0000   1.0000   1.0000   1.0000   1.0000   1.0000   1.0000
     1.0000   1.0000   1.0000   1.0000   1.0000   1.0000   1.0000   1.0000

          k = 0.3333 0.1667 0.8333 (  1636 PWs)   bands (ev):

    -5.1101  -3.7262  -2.6139  -2.6130  -0.5890  -0.5887   0.6948   2.1636
     2.1642   2.7146   3.1397   3.5148   3.5150   3.9022   5.0491   5.2307

     occupation numbers 
     1.0000   1.0000   1.0000   1.0000   1.0000   1.0000   1.0000   1.0000
     1.0000   1.0000   1.0000   1.0000   1.0000   1.0000   1.0000   1.0000

          k = 0.5000 0.1667 0.8333 (  1622 PWs)   bands (ev):

    -4.5250  -4.5239  -2.5352  -2.5343  -0.6995  -0.6993   1.7096   1.7101
     2.1037   2.1044   3.3674   3.3674   4.1495   4.1499   4.4034   4.4046

     occupation numbers 
     1.0000   1.0000   1.0000   1.0000   1.0000   1.0000   1.0000   1.0000
     1.0000   1.0000   1.0000   1.0000   1.0000   1.0000   1.0000   1.0000

          k = 0.6667 0.1667 0.8333 (  1636 PWs)   bands (ev):

    -5.1101  -3.7262  -2.6139  -2.6130  -0.5890  -0.5887   0.6948   2.1636
     2.1642   2.7146   3.1397   3.5148   3.5150   3.9022   5.0491   5.2307

     occupation numbers 
     1.0000   1.0000   1.0000   1.0000   1.0000   1.0000   1.0000   1.0000
     1.0000   1.0000   1.0000   1.0000   1.0000   1.0000   1.0000   1.0000

          k = 0.8333 0.1667 0.8333 (  1629 PWs)   bands (ev):

    -5.4668  -2.7475  -2.7475  -2.7464  -0.4124  -0.4124  -0.4118   2.4845
     2.4845   2.4850   3.5892   3.5897   3.5897   3.7666   5.7163   5.7163

     occupation numbers 
     1.0000   1.0000   1.0000   1.0000   1.0000   1.0000   1.0000   1.0000
     1.0000   1.0000   1.0000   1.0000   1.0000   1.0000   1.0000   1.0000

          k = 0.0000 0.3333 0.8333 (  1627 PWs)   bands (ev):

    -5.2259  -3.8183  -2.5884  -2.0119  -1.1054  -0.4876   0.9706   1.8545
     2.3463   2.9733   3.2916   3.3603   3.4276   3.7279   4.5084   5.4576

     occupation numbers 
     1.0000   1.0000   1.0000   1.0000   1.0000   1.0000   1.0000   1.0000
     1.0000   1.0000   1.0000   1.0000   1.0000   1.0000   1.0000   1.0000

          k = 0.1667 0.3333 0.8333 (  1636 PWs)   bands (ev):

    -5.1101  -3.7262  -2.6139  -2.6130  -0.5890  -0.5887   0.6948   2.1636
     2.1642   2.7146   3.1397   3.5148   3.5150   3.9022   5.0491   5.2307

     occupation numbers 
     1.0000   1.0000   1.0000   1.0000   1.0000   1.0000   1.0000   1.0000
     1.0000   1.0000   1.0000   1.0000   1.0000   1.0000   1.0000   1.0000

          k = 0.3333 0.3333 0.8333 (  1631 PWs)   bands (ev):

    -4.7666  -3.4669  -3.4661  -2.7675  -0.6603   0.1159   0.1160   1.7370
     2.2192   2.9033   2.9035   4.0155   4.0163   4.1243   4.4560   5.4830

     occupation numbers 
     1.0000   1.0000   1.0000   1.0000   1.0000   1.0000   1.0000   1.0000
     1.0000   1.0000   1.0000   1.0000   1.0000   1.0000   1.0000   1.0000

          k = 0.5000 0.3333 0.8333 (  1626 PWs)   bands (ev):

    -4.2092  -4.2082  -3.1011  -3.1002  -0.4099  -0.4095   0.8671   0.8677
     2.5346   2.5354   3.7012   3.7017   4.1730   4.1731   4.8466   4.8469

     occupation numbers 
     1.0000   1.0000   1.0000   1.0000   1.0000   1.0000   1.0000   1.0000
     1.0000   1.0000   1.0000   1.0000   1.0000   1.0000   1.0000   1.0000

          k = 0.6667 0.3333 0.8333 (  1631 PWs)   bands (ev):

    -4.7666  -3.4669  -3.4661  -2.7675  -0.6603   0.1159   0.1160   1.7370
     2.2192   2.9033   2.9035   4.0155   4.0163   4.1243   4.4560   5.4830

     occupation numbers 
     1.0000   1.0000   1.0000   1.0000   1.0000   1.0000   1.0000   1.0000
     1.0000   1.0000   1.0000   1.0000   1.0000   1.0000   1.0000   1.0000

          k = 0.8333 0.3333 0.8333 (  1636 PWs)   bands (ev):

    -5.1101  -3.7262  -2.6139  -2.6130  -0.5890  -0.5887   0.6948   2.1636
     2.1642   2.7146   3.1397   3.5148   3.5150   3.9022   5.0491   5.2307

     occupation numbers 
     1.0000   1.0000   1.0000   1.0000   1.0000   1.0000   1.0000   1.0000
     1.0000   1.0000   1.0000   1.0000   1.0000   1.0000   1.0000   1.0000

          k = 0.0000 0.5000 0.8333 (  1634 PWs)   bands (ev):

    -4.6327  -4.6317  -2.2929  -2.2920  -0.7668  -0.7663   1.8971   1.8973
     2.2355   2.2357   3.0447   3.0448   3.8053   3.8057   4.5234   4.5236

     occupation numbers 
     1.0000   1.0000   1.0000   1.0000   1.0000   1.0000   1.0000   1.0000
     1.0000   1.0000   1.0000   1.0000   1.0000   1.0000   1.0000   1.0000

          k = 0.1667 0.5000 0.8333 (  1622 PWs)   bands (ev):

    -4.5250  -4.5239  -2.5352  -2.5343  -0.6995  -0.6993   1.7096   1.7101
     2.1037   2.1044   3.3674   3.3674   4.1495   4.1499   4.4034   4.4046

     occupation numbers 
     1.0000   1.0000   1.0000   1.0000   1.0000   1.0000   1.0000   1.0000
     1.0000   1.0000   1.0000   1.0000   1.0000   1.0000   1.0000   1.0000

          k = 0.3333 0.5000 0.8333 (  1626 PWs)   bands (ev):

    -4.2092  -4.2082  -3.1011  -3.1002  -0.4099  -0.4095   0.8671   0.8677
     2.5346   2.5354   3.7012   3.7017   4.1730   4.1731   4.8466   4.8469

     occupation numbers 
     1.0000   1.0000   1.0000   1.0000   1.0000   1.0000   1.0000   1.0000
     1.0000   1.0000   1.0000   1.0000   1.0000   1.0000   1.0000   1.0000

          k = 0.5000 0.5000 0.8333 (  1640 PWs)   bands (ev):

    -3.7124  -3.7122  -3.7122  -3.7104   0.1272   0.1277   0.1277   0.1283
     3.0809   3.0817   3.0817   3.0824   4.8602   4.8607   4.8616   4.8616

     occupation numbers 
     1.0000   1.0000   1.0000   1.0000   1.0000   1.0000   1.0000   1.0000
     1.0000   1.0000   1.0000   1.0000   1.0000   1.0000   1.0000   1.0000

          k = 0.6667 0.5000 0.8333 (  1626 PWs)   bands (ev):

    -4.2092  -4.2082  -3.1011  -3.1002  -0.4099  -0.4095   0.8671   0.8677
     2.5346   2.5354   3.7012   3.7017   4.1730   4.1731   4.8466   4.8469

     occupation numbers 
     1.0000   1.0000   1.0000   1.0000   1.0000   1.0000   1.0000   1.0000
     1.0000   1.0000   1.0000   1.0000   1.0000   1.0000   1.0000   1.0000

          k = 0.8333 0.5000 0.8333 (  1622 PWs)   bands (ev):

    -4.5250  -4.5239  -2.5352  -2.5343  -0.6995  -0.6993   1.7096   1.7101
     2.1037   2.1044   3.3674   3.3674   4.1495   4.1499   4.4034   4.4046

     occupation numbers 
     1.0000   1.0000   1.0000   1.0000   1.0000   1.0000   1.0000   1.0000
     1.0000   1.0000   1.0000   1.0000   1.0000   1.0000   1.0000   1.0000

          k = 0.0000 0.6667 0.8333 (  1627 PWs)   bands (ev):

    -5.2259  -3.8183  -2.5884  -2.0119  -1.1054  -0.4876   0.9706   1.8545
     2.3463   2.9733   3.2916   3.3603   3.4276   3.7279   4.5084   5.4576

     occupation numbers 
     1.0000   1.0000   1.0000   1.0000   1.0000   1.0000   1.0000   1.0000
     1.0000   1.0000   1.0000   1.0000   1.0000   1.0000   1.0000   1.0000

          k = 0.1667 0.6667 0.8333 (  1636 PWs)   bands (ev):

    -5.1101  -3.7262  -2.6139  -2.6130  -0.5890  -0.5887   0.6948   2.1636
     2.1642   2.7146   3.1397   3.5148   3.5150   3.9022   5.0491   5.2307

     occupation numbers 
     1.0000   1.0000   1.0000   1.0000   1.0000   1.0000   1.0000   1.0000
     1.0000   1.0000   1.0000   1.0000   1.0000   1.0000   1.0000   1.0000

          k = 0.3333 0.6667 0.8333 (  1631 PWs)   bands (ev):

    -4.7666  -3.4669  -3.4661  -2.7675  -0.6603   0.1159   0.1160   1.7370
     2.2192   2.9033   2.9035   4.0155   4.0163   4.1243   4.4560   5.4830

     occupation numbers 
     1.0000   1.0000   1.0000   1.0000   1.0000   1.0000   1.0000   1.0000
     1.0000   1.0000   1.0000   1.0000   1.0000   1.0000   1.0000   1.0000

          k = 0.5000 0.6667 0.8333 (  1626 PWs)   bands (ev):

    -4.2092  -4.2082  -3.1011  -3.1002  -0.4099  -0.4095   0.8671   0.8677
     2.5346   2.5354   3.7012   3.7017   4.1730   4.1731   4.8466   4.8469

     occupation numbers 
     1.0000   1.0000   1.0000   1.0000   1.0000   1.0000   1.0000   1.0000
     1.0000   1.0000   1.0000   1.0000   1.0000   1.0000   1.0000   1.0000

          k = 0.6667 0.6667 0.8333 (  1631 PWs)   bands (ev):

    -4.7666  -3.4669  -3.4661  -2.7675  -0.6603   0.1159   0.1160   1.7370
     2.2192   2.9033   2.9035   4.0155   4.0163   4.1243   4.4560   5.4830

     occupation numbers 
     1.0000   1.0000   1.0000   1.0000   1.0000   1.0000   1.0000   1.0000
     1.0000   1.0000   1.0000   1.0000   1.0000   1.0000   1.0000   1.0000

          k = 0.8333 0.6667 0.8333 (  1636 PWs)   bands (ev):

    -5.1101  -3.7262  -2.6139  -2.6130  -0.5890  -0.5887   0.6948   2.1636
     2.1642   2.7146   3.1397   3.5148   3.5150   3.9022   5.0491   5.2307

     occupation numbers 
     1.0000   1.0000   1.0000   1.0000   1.0000   1.0000   1.0000   1.0000
     1.0000   1.0000   1.0000   1.0000   1.0000   1.0000   1.0000   1.0000

          k = 0.0000 0.8333 0.8333 (  1638 PWs)   bands (ev):

    -5.5865  -2.8060  -2.8052  -1.8052  -1.4057  -0.3443  -0.3438   2.2676
     3.0058   3.0059   3.2056   3.2063   3.4838   4.5682   5.2900   6.0549

     occupation numbers 
     1.0000   1.0000   1.0000   1.0000   1.0000   1.0000   1.0000   1.0000
     1.0000   1.0000   1.0000   1.0000   1.0000   1.0000   1.0000   1.0000

          k = 0.1667 0.8333 0.8333 (  1629 PWs)   bands (ev):

    -5.4668  -2.7475  -2.7475  -2.7464  -0.4124  -0.4124  -0.4118   2.4845
     2.4845   2.4850   3.5892   3.5897   3.5897   3.7666   5.7163   5.7163

     occupation numbers 
     1.0000   1.0000   1.0000   1.0000   1.0000   1.0000   1.0000   1.0000
     1.0000   1.0000   1.0000   1.0000   1.0000   1.0000   1.0000   1.0000

          k = 0.3333 0.8333 0.8333 (  1636 PWs)   bands (ev):

    -5.1101  -3.7262  -2.6139  -2.6130  -0.5890  -0.5887   0.6948   2.1636
     2.1642   2.7146   3.1397   3.5148   3.5150   3.9022   5.0491   5.2307

     occupation numbers 
     1.0000   1.0000   1.0000   1.0000   1.0000   1.0000   1.0000   1.0000
     1.0000   1.0000   1.0000   1.0000   1.0000   1.0000   1.0000   1.0000

          k = 0.5000 0.8333 0.8333 (  1622 PWs)   bands (ev):

    -4.5250  -4.5239  -2.5352  -2.5343  -0.6995  -0.6993   1.7096   1.7101
     2.1037   2.1044   3.3674   3.3674   4.1495   4.1499   4.4034   4.4046

     occupation numbers 
     1.0000   1.0000   1.0000   1.0000   1.0000   1.0000   1.0000   1.0000
     1.0000   1.0000   1.0000   1.0000   1.0000   1.0000   1.0000   1.0000

          k = 0.6667 0.8333 0.8333 (  1636 PWs)   bands (ev):

    -5.1101  -3.7262  -2.6139  -2.6130  -0.5890  -0.5887   0.6948   2.1636
     2.1642   2.7146   3.1397   3.5148   3.5150   3.9022   5.0491   5.2307

     occupation numbers 
     1.0000   1.0000   1.0000   1.0000   1.0000   1.0000   1.0000   1.0000
     1.0000   1.0000   1.0000   1.0000   1.0000   1.0000   1.0000   1.0000

          k = 0.8333 0.8333 0.8333 (  1629 PWs)   bands (ev):

    -5.4668  -2.7475  -2.7475  -2.7464  -0.4124  -0.4124  -0.4118   2.4845
     2.4845   2.4850   3.5892   3.5897   3.5897   3.7666   5.7163   5.7163

     occupation numbers 
     1.0000   1.0000   1.0000   1.0000   1.0000   1.0000   1.0000   1.0000
     1.0000   1.0000   1.0000   1.0000   1.0000   1.0000   1.0000   1.0000

     highest occupied level (ev):     6.1733

     Writing output data file /home/ponet/.julia/dev/DFControl/docs/build/guide/Job2/outputs/Si.save/

     init_run     :      0.13s CPU      0.13s WALL (       1 calls)
     electrons    :     10.19s CPU     10.30s WALL (       1 calls)

     Called by init_run:
     wfcinit      :      0.00s CPU      0.00s WALL (       1 calls)
     wfcinit:atom :      0.01s CPU      0.01s WALL (      54 calls)
     wfcinit:wfcr :      0.68s CPU      0.68s WALL (      54 calls)
     potinit      :      0.05s CPU      0.05s WALL (       1 calls)
     hinit0       :      0.06s CPU      0.06s WALL (       1 calls)

     Called by electrons:
     c_bands      :     10.18s CPU     10.30s WALL (       1 calls)
     v_of_rho     :      0.01s CPU      0.01s WALL (       1 calls)
     v_h          :      0.00s CPU      0.00s WALL (       1 calls)
     v_xc         :      0.01s CPU      0.01s WALL (       1 calls)
     newd         :      0.00s CPU      0.00s WALL (       1 calls)
     PAW_pot      :      0.04s CPU      0.04s WALL (       1 calls)

     Called by c_bands:
     init_us_2    :      0.02s CPU      0.02s WALL (      54 calls)
     cegterg      :      9.13s CPU      9.23s WALL (     108 calls)

     Called by sum_band:

     Called by *egterg:
     cdiaghg      :      0.32s CPU      0.32s WALL (    1506 calls)
     cegterg:over :      0.39s CPU      0.40s WALL (    1452 calls)
     cegterg:upda :      0.20s CPU      0.20s WALL (    1452 calls)
     cegterg:last :      0.52s CPU      0.52s WALL (    1238 calls)
     h_psi        :      7.60s CPU      7.69s WALL (    1614 calls)
     s_psi        :      0.53s CPU      0.54s WALL (    1614 calls)
     g_psi        :      0.08s CPU      0.08s WALL (    1452 calls)

     Called by h_psi:
     h_psi:calbec :      0.47s CPU      0.48s WALL (    1614 calls)
     vloc_psi     :      6.53s CPU      6.60s WALL (    1614 calls)
     add_vuspsi   :      0.56s CPU      0.56s WALL (    1614 calls)

     General routines
     calbec       :      0.47s CPU      0.47s WALL (    1614 calls)
     fft          :      0.00s CPU      0.00s WALL (      12 calls)
     fftw         :      5.73s CPU      5.80s WALL (   44104 calls)
     davcio       :      0.00s CPU      0.01s WALL (     108 calls)

     Parallel routines

     PAW routines
     PAW_pot      :      0.04s CPU      0.04s WALL (       1 calls)

     PWSCF        :     10.63s CPU     10.77s WALL


   This run was terminated on:  17:32: 4  16Jun2021            

=------------------------------------------------------------------------------=
   JOB DONE.
=------------------------------------------------------------------------------=
