
             +---------------------------------------------------+
             |                                                   |
             |                   WANNIER90                       |
             |                                                   |
             +---------------------------------------------------+
             |                                                   |
             |        Welcome to the Maximally-Localized         |
             |        Generalized Wannier Functions code         |
             |            http://www.wannier.org                 |
             |                                                   |
             |  Wannier90 v2.x Authors:                          |
             |    Arash A. Mostofi  (Imperial College London)    |
             |    Giovanni Pizzi    (EPFL)                       |
             |    Ivo Souza         (Universidad del Pais Vasco) |
             |    Jonathan R. Yates (University of Oxford)       |
             |                                                   |
             |  Wannier90 Contributors:                          |
             |    Young-Su Lee       (KIST, S. Korea)            |
             |    Matthew Shelley    (Imperial College London)   |
             |    Nicolas Poilvert   (Penn State University)     |
             |    Raffaello Bianco   (Paris 6 and CNRS)          |
             |    Gabriele Sclauzero (ETH Zurich)                |
             |    David Strubbe (MIT, USA)                       |
             |    Rei Sakuma (Lund University, Sweden)           |
             |    Yusuke Nomura (U. Tokyo, Japan)                |
             |    Takashi Koretsune (Riken, Japan)               |
             |    Yoshiro Nohara (ASMS Co. Ltd., Japan)          |
             |    Ryotaro Arita (Riken, Japan)                   |
             |    Lorenzo Paulatto (UPMC Paris)                  |
             |    Florian Thole (ETH Zurich)                     |
             |    Pablo Garcia Fernandez (Unican, Spain)         |
             |    Dominik Gresch (ETH Zurich)                    |
             |    Samuel Ponce (University of Oxford)            |
             |    Marco Gibertini (EPFL)                         |
             |    Christian Stieger (ETHZ, CH)                   |
             |    Stepan Tsirkin (Universidad del Pais Vasco)    |
             |                                                   |
             |  Wannier77 Authors:                               |
             |    Nicola Marzari    (EPFL)                       |
             |    Ivo Souza         (Universidad del Pais Vasco) |
             |    David Vanderbilt  (Rutgers University)         |
             |                                                   |
             |  Please cite                                      |
             |                                                   |
             |  [ref] "An updated version of Wannier90:          |
             |        A Tool for Obtaining Maximally Localised   |
             |        Wannier Functions", A. A. Mostofi,         |
             |        J. R. Yates, G. Pizzi, Y. S. Lee,          |
             |        I. Souza, D. Vanderbilt and N. Marzari,    |
             |        Comput. Phys. Commun. 185, 2309 (2014)     |
             |        http://dx.doi.org/10.1016/j.cpc.2014.05.003|
             |                                                   |
             |  in any publications arising from the use of      |
             |  this code. For the method please cite            |
             |                                                   |
             |  [ref] "Maximally Localized Generalised Wannier   |
             |         Functions for Composite Energy Bands"     |
             |         N. Marzari and D. Vanderbilt              |
             |         Phys. Rev. B 56 12847 (1997)              |
             |                                                   |
             |  [ref] "Maximally Localized Wannier Functions     |
             |         for Entangled Energy Bands"               |
             |         I. Souza, N. Marzari and D. Vanderbilt    |
             |         Phys. Rev. B 65 035109 (2001)             |
             |                                                   |
             |                                                   |
             | Copyright (c) 1996-2017                           |
             |        Arash A. Mostofi, Jonathan R. Yates,       |
             |        Young-Su Lee, Giovanni Pizzi, Ivo Souza,   |
             |        David Vanderbilt and Nicola Marzari        |
             |                                                   |
             |        Release: 2.1.0   13th January 2017         |
             |                                                   |
             | This program is free software; you can            |
             | redistribute it and/or modify it under the terms  |
             | of the GNU General Public License as published by |
             | the Free Software Foundation; either version 2 of |
             | the License, or (at your option) any later version|
             |                                                   |
             | This program is distributed in the hope that it   |
             | will be useful, but WITHOUT ANY WARRANTY; without |
             | even the implied warranty of MERCHANTABILITY or   |
             | FITNESS FOR A PARTICULAR PURPOSE. See the GNU     |
             | General Public License for more details.          |
             |                                                   |
             | You should have received a copy of the GNU General|
             | Public License along with this program; if not,   |
             | write to the Free Software Foundation, Inc.,      |
             | 675 Mass Ave, Cambridge, MA 02139, USA.           |
             |                                                   |
             +---------------------------------------------------+
             |    Execution started on 25Nov2018 at 15:39:13     |
             +---------------------------------------------------+

 ******************************************************************************
 * -> Using CODATA 2006 constant values                                       *
 *    (http://physics.nist.gov/cuu/Constants/index.html)                      *
 * -> Using Bohr value from CODATA                                            *
 ******************************************************************************


                                    ------
                                    SYSTEM
                                    ------

                              Lattice Vectors (Ang)
                    a_1     3.926998   0.000000   5.598789
                    a_2    -1.963499   3.400880   5.598789
                    a_3    -1.963499  -3.400880   5.598789

                   Unit Cell Volume:     224.31968  (Ang^3)

                        Reciprocal-Space Vectors (Ang^-1)
                    b_1     1.066665   0.000000   0.374080
                    b_2    -0.533332   0.923759   0.374080
                    b_3    -0.533332  -0.923759   0.374080

 *----------------------------------------------------------------------------*
 |   Site       Fractional Coordinate          Cartesian Coordinate (Ang)     |
 +----------------------------------------------------------------------------+
 | V    1   0.39010   0.39010   0.39010   |    0.00000   0.00000   6.55226    |
 | V    2   0.39520   0.39520   0.81520   |   -0.82467  -1.42837   8.98942    |
 | V    1   0.39520   0.81520   0.39520   |   -0.82467   1.42837   8.98942    |
 | V    2   0.81520   0.39520   0.39520   |    1.64934   0.00000   8.98942    |
 | Ga   1   0.00000   0.00000   0.00000   |    0.00000   0.00000   0.00000    |
 | S    1   0.63020   0.63020   0.63020   |    0.00000   0.00000  10.58507    |
 | S    2   0.62820   0.62820   0.11030   |    1.01690   1.76132   7.65187    |
 | S    3   0.62820   0.11030   0.62820   |    1.01690  -1.76132   7.65187    |
 | S    4   0.11030   0.62820   0.62820   |   -2.03379   0.00000   7.65187    |
 | S    5   0.13500   0.13500   0.13500   |    0.00000   0.00000   2.26751    |
 | S    6   0.13230   0.13230   0.59670   |   -0.91185  -1.57937   4.82224    |
 | S    7   0.13230   0.59670   0.13230   |   -0.91185   1.57937   4.82224    |
 | S    8   0.59670   0.13230   0.13230   |    1.82370   0.00000   4.82224    |
 *----------------------------------------------------------------------------*

                                ------------
                                K-POINT GRID
                                ------------

             Grid size =  4 x  4 x  4      Total points =   64


 *---------------------------------- MAIN ------------------------------------*
 |  Number of Wannier Functions               :                20             |
 |  Number of input Bloch states              :                68             |
 |  Output verbosity (1=low, 5=high)          :                 1             |
 |  Timing Level (1=low, 5=high)              :                 1             |
 |  Optimisation (0=memory, 3=speed)          :                 3             |
 |  Length Unit                               :               Ang             |
 |  Post-processing setup (write *.nnkp)      :                 F             |
 |  Using Gamma-only branch of algorithms     :                 F             |
 *----------------------------------------------------------------------------*
 *------------------------------- WANNIERISE ---------------------------------*
 |  Total number of iterations                :             10000             |
 |  Number of CG steps before reset           :                 5             |
 |  Trial step length for line search         :             2.000             |
 |  Convergence tolerence                     :         0.100E-09             |
 |  Convergence window                        :                -1             |
 |  Iterations between writing output         :                 1             |
 |  Iterations between backing up to disk     :               100             |
 |  Write r^2_nm to file                      :                 F             |
 |  Write xyz WF centres to file              :                 F             |
 |  Write on-site energies <0n|H|0n> to file  :                 F             |
 |  Use guiding centre to control phases      :                 F             |
 |  Use phases for initial projections        :                 F             |
 *----------------------------------------------------------------------------*
 *------------------------------- DISENTANGLE --------------------------------*
 |  Using band disentanglement                :                 T             |
 |  Total number of iterations                :             10000             |
 |  Mixing ratio                              :             0.500             |
 |  Convergence tolerence                     :         1.000E-10             |
 |  Convergence window                        :                 3             |
 *----------------------------------------------------------------------------*
 *-------------------------------- PLOTTING ----------------------------------*
 |  Plotting Hamiltonian in WF basis          :                 T             |
 *----------------------------------------------------------------------------*
 Time to read parameters        0.006 (sec)

 *---------------------------------- K-MESH ----------------------------------*
 +----------------------------------------------------------------------------+
 |                    Distance to Nearest-Neighbour Shells                    |
 |                    ------------------------------------                    |
 |          Shell             Distance (Ang^-1)          Multiplicity         |
 |          -----             -----------------          ------------         |
 |             1                   0.280560                      2            |
 |             2                   0.282590                      6            |
 |             3                   0.325722                      6            |
 |             4                   0.459398                      6            |
 |             5                   0.461879                      6            |
 |             6                   0.538294                      6            |
 |             7                   0.540413                     12            |
 |             8                   0.541470                      6            |
 |             9                   0.561120                      2            |
 |            10                   0.565179                      6            |
 |            11                   0.651444                      6            |
 |            12                   0.706869                      6            |
 +----------------------------------------------------------------------------+
 | The b-vectors are chosen automatically                                     |
 | The following shells are used:   1,  2                                     |
 +----------------------------------------------------------------------------+
 |                        Shell   # Nearest-Neighbours                        |
 |                        -----   --------------------                        |
 |                          1               2                                 |
 |                          2               6                                 |
 +----------------------------------------------------------------------------+
 | Completeness relation is fully satisfied [Eq. (B1), PRB 56, 12847 (1997)]  |
 +----------------------------------------------------------------------------+
 |                  b_k Vectors (Ang^-1) and Weights (Ang^2)                  |
 |                  ----------------------------------------                  |
 |            No.         b_k(x)      b_k(y)      b_k(z)        w_b           |
 |            ---        --------------------------------     --------        |
 |             1         0.000000    0.000000    0.280560     4.789611        |
 |             2         0.000000    0.000000   -0.280560     4.789611        |
 |             3        -0.133333   -0.230940    0.093520     4.687517        |
 |             4        -0.133333    0.230940    0.093520     4.687517        |
 |             5         0.266666    0.000000    0.093520     4.687517        |
 |             6         0.133333    0.230940   -0.093520     4.687517        |
 |             7         0.133333   -0.230940   -0.093520     4.687517        |
 |             8        -0.266666    0.000000   -0.093520     4.687517        |
 +----------------------------------------------------------------------------+
 |                           b_k Directions (Ang^-1)                          |
 |                           -----------------------                          |
 |            No.           x           y           z                         |
 |            ---        --------------------------------                     |
 |             1         0.000000    0.000000    0.280560                     |
 |             2        -0.133333   -0.230940    0.093520                     |
 |             3        -0.133333    0.230940    0.093520                     |
 |             4         0.266666    0.000000    0.093520                     |
 +----------------------------------------------------------------------------+

 *============================================================================*
 |                              MEMORY ESTIMATE                               |
 |         Maximum RAM allocated during each phase of the calculation         |
 *============================================================================*
 |                        Disentanglement           48.50 Mb                  |
 |                            Wannierise:            9.63 Mb                  |
 |                          plot_wannier:            9.63 Mb                  |
 *----------------------------------------------------------------------------*

 Starting a new Wannier90 calculation ...

 Time to get kmesh              0.016 (sec)

 Reading overlaps from wanup.mmn    :  Created on 23Nov2018 at  2:17:34

 Reading projections from wanup.amn :  Created on 23Nov2018 at  2:17:21

 Time to read overlaps          1.868 (sec)

 *------------------------------- DISENTANGLE --------------------------------*
 +----------------------------------------------------------------------------+
 |                              Energy  Windows                               |
 |                              ---------------                               |
 |                   Outer:    0.46630  to   14.87730  (eV)                   |
 |                   Inner:    7.46630  to    9.86570  (eV)                   |
 +----------------------------------------------------------------------------+
   Number of target bands to extract:   20

                   Unitarised projection of Wannier functions
                   ------------------------------------------
   A_mn = <psi_m|g_n> --> S = A.A^+ --> U = S^-1/2.A
   In dis_project... done
   Using an inner window (linner = T)
   In dis_proj_froz... done

                   Extraction of optimally-connected subspace
                   ------------------------------------------
 +---------------------------------------------------------------------+<-- DIS
 |  Iter     Omega_I(i-1)      Omega_I(i)      Delta (frac.)    Time   |<-- DIS
 +---------------------------------------------------------------------+<-- DIS
       1     119.94334968     108.95596077       1.008E-01      1.99    <-- DIS
       2     111.03294378     105.36491336       5.379E-02      2.03    <-- DIS
       3     107.58154482     103.35387232       4.090E-02      2.07    <-- DIS
       4     104.96406598     101.90032608       3.007E-02      2.10    <-- DIS
       5     103.04897491     100.78507488       2.246E-02      2.14    <-- DIS
       6     101.61816564      99.88852775       1.732E-02      2.18    <-- DIS
       7     100.51394098      99.13780251       1.388E-02      2.21    <-- DIS
       8      99.62863081      98.48610108       1.160E-02      2.25    <-- DIS
       9      98.88990037      97.90225188       1.009E-02      2.28    <-- DIS
      10      98.24897276      97.36512853       9.078E-03      2.32    <-- DIS
      11      97.67331720      96.86032557       8.393E-03      2.35    <-- DIS
      12      97.14241081      96.37941649       7.917E-03      2.39    <-- DIS
      13      96.64403013      95.92001772       7.548E-03      2.43    <-- DIS
      14      96.17161498      95.48119968       7.231E-03      2.46    <-- DIS
      15      95.72232390      95.06082712       6.959E-03      2.50    <-- DIS
      16      95.29364753      94.65626561       6.734E-03      2.53    <-- DIS
      17      94.88267368      94.26506716       6.552E-03      2.57    <-- DIS
      18      94.48657938      93.88515539       6.406E-03      2.60    <-- DIS
      19      94.10290199      93.51482271       6.289E-03      2.64    <-- DIS
      20      93.72959717      93.15268307       6.193E-03      2.68    <-- DIS
      21      93.36500824      92.79762216       6.114E-03      2.71    <-- DIS
      22      93.00781155      92.44875502       6.047E-03      2.75    <-- DIS
      23      92.65696227      92.10539116       5.988E-03      2.78    <-- DIS
      24      92.31164799      91.76700576       5.935E-03      2.82    <-- DIS
      25      91.97125067      91.43321508       5.884E-03      2.86    <-- DIS
      26      91.63531539      91.10375489       5.835E-03      2.90    <-- DIS
      27      91.30352420      90.77846091       5.784E-03      2.93    <-- DIS
      28      90.97567365      90.45725107       5.731E-03      2.97    <-- DIS
      29      90.65165490      90.14010947       5.675E-03      3.01    <-- DIS
      30      90.33143613      89.82707216       5.615E-03      3.04    <-- DIS
      31      90.01504694      89.51821494       5.550E-03      3.08    <-- DIS
      32      89.70256478      89.21364342       5.480E-03      3.12    <-- DIS
      33      89.39410350      88.91348513       5.405E-03      3.15    <-- DIS
      34      89.08980405      88.61788365       5.325E-03      3.19    <-- DIS
      35      88.78982707      88.32699427       5.240E-03      3.23    <-- DIS
      36      88.49434715      88.04098068       5.149E-03      3.26    <-- DIS
      37      88.20354828      87.76001207       5.054E-03      3.30    <-- DIS
      38      87.91762000      87.48426024       4.954E-03      3.34    <-- DIS
      39      87.63675372      87.21389603       4.849E-03      3.37    <-- DIS
      40      87.36113864      86.94908453       4.739E-03      3.41    <-- DIS
      41      87.09095672      86.68997835       4.625E-03      3.45    <-- DIS
      42      86.82637563      86.43670722       4.508E-03      3.49    <-- DIS
      43      86.56753825      86.18936128       4.388E-03      3.52    <-- DIS
      44      86.31454551      85.94796191       4.265E-03      3.56    <-- DIS
      45      86.06742695      85.71240879       4.142E-03      3.60    <-- DIS
      46      85.82608772      85.48237959       4.021E-03      3.63    <-- DIS
      47      85.59021069      85.25714219       3.907E-03      3.67    <-- DIS
      48      85.35908040      85.03524026       3.808E-03      3.71    <-- DIS
      49      85.13131051      84.81412700       3.740E-03      3.74    <-- DIS
      50      84.90456082      84.58959789       3.723E-03      3.78    <-- DIS
      51      84.67486748      84.34962242       3.856E-03      3.82    <-- DIS
      52      84.43417203      84.09038802       4.088E-03      3.85    <-- DIS
      53      84.17920193      83.83340212       4.125E-03      3.89    <-- DIS
      54      83.92092368      83.58342689       4.038E-03      3.93    <-- DIS
      55      83.66734542      83.34063119       3.920E-03      3.96    <-- DIS
      56      83.42140438      83.10578408       3.798E-03      4.00    <-- DIS
      57      83.18394159      82.87959094       3.672E-03      4.05    <-- DIS
      58      82.95482958      82.66240150       3.538E-03      4.08    <-- DIS
      59      82.73403860      82.45425588       3.393E-03      4.12    <-- DIS
      60      82.52170631      82.25501107       3.242E-03      4.16    <-- DIS
      61      82.31795022      82.06442795       3.089E-03      4.19    <-- DIS
      62      82.12277255      81.88221926       2.938E-03      4.23    <-- DIS
      63      81.93605562      81.70807556       2.790E-03      4.27    <-- DIS
      64      81.75759129      81.54167983       2.648E-03      4.30    <-- DIS
      65      81.58711373      81.38271628       2.512E-03      4.34    <-- DIS
      66      81.42432570      81.23087568       2.381E-03      4.38    <-- DIS
      67      81.26891697      81.08585878       2.258E-03      4.41    <-- DIS
      68      81.12057647      80.94737832       2.140E-03      4.45    <-- DIS
      69      80.97899986      80.81516028       2.027E-03      4.49    <-- DIS
      70      80.84389407      80.68894438       1.920E-03      4.52    <-- DIS
      71      80.71497976      80.56848416       1.818E-03      4.56    <-- DIS
      72      80.59199240      80.45354663       1.721E-03      4.60    <-- DIS
      73      80.47468254      80.34391164       1.628E-03      4.63    <-- DIS
      74      80.36281534      80.23937104       1.538E-03      4.67    <-- DIS
      75      80.25616982      80.13972764       1.453E-03      4.71    <-- DIS
      76      80.15453777      80.04479415       1.371E-03      4.75    <-- DIS
      77      80.05772255      79.95439196       1.292E-03      4.78    <-- DIS
      78      79.96553778      79.86835010       1.217E-03      4.82    <-- DIS
      79      79.87780607      79.78650411       1.144E-03      4.86    <-- DIS
      80      79.79435781      79.70869510       1.075E-03      4.89    <-- DIS
      81      79.71502994      79.63476887       1.008E-03      4.93    <-- DIS
      82      79.63966500      79.56457516       9.438E-04      4.97    <-- DIS
      83      79.56811017      79.49796710       8.823E-04      5.00    <-- DIS
      84      79.50021655      79.43480066       8.235E-04      5.04    <-- DIS
      85      79.43583854      79.37493441       7.673E-04      5.08    <-- DIS
      86      79.37483338      79.31822922       7.136E-04      5.11    <-- DIS
      87      79.31706081      79.26454821       6.625E-04      5.15    <-- DIS
      88      79.26238289      79.21375667       6.139E-04      5.19    <-- DIS
      89      79.21066386      79.16572213       5.677E-04      5.22    <-- DIS
      90      79.16177014      79.12031445       5.240E-04      5.26    <-- DIS
      91      79.11557038      79.07740598       4.826E-04      5.30    <-- DIS
      92      79.07193559      79.03687170       4.436E-04      5.34    <-- DIS
      93      79.03073924      78.99858943       4.070E-04      5.37    <-- DIS
      94      78.99185747      78.96243996       3.726E-04      5.41    <-- DIS
      95      78.95516928      78.92830728       3.403E-04      5.45    <-- DIS
      96      78.92055667      78.89607869       3.103E-04      5.48    <-- DIS
      97      78.88790482      78.86564498       2.823E-04      5.52    <-- DIS
      98      78.85710229      78.83690051       2.562E-04      5.56    <-- DIS
      99      78.82804109      78.80974333       2.322E-04      5.59    <-- DIS
     100      78.80061687      78.78407523       2.100E-04      5.63    <-- DIS
     101      78.77472895      78.75980177       1.895E-04      5.67    <-- DIS
     102      78.75028037      78.73683232       1.708E-04      5.70    <-- DIS
     103      78.72717800      78.71508002       1.537E-04      5.74    <-- DIS
     104      78.70533245      78.69446174       1.381E-04      5.78    <-- DIS
     105      78.68465816      78.67489808       1.241E-04      5.81    <-- DIS
     106      78.66507324      78.65631322       1.114E-04      5.85    <-- DIS
     107      78.64649952      78.63863488       1.000E-04      5.89    <-- DIS
     108      78.62886242      78.62179421       8.990E-05      5.93    <-- DIS
     109      78.61209086      78.60572567       8.098E-05      5.96    <-- DIS
     110      78.59611716      78.59036689       7.317E-05      6.00    <-- DIS
     111      78.58087692      78.57565858       6.641E-05      6.04    <-- DIS
     112      78.56630890      78.56154435       6.065E-05      6.07    <-- DIS
     113      78.55235491      78.54797062       5.582E-05      6.11    <-- DIS
     114      78.53895961      78.53488644       5.186E-05      6.15    <-- DIS
     115      78.52607044      78.52224335       4.874E-05      6.18    <-- DIS
     116      78.51363744      78.50999527       4.639E-05      6.22    <-- DIS
     117      78.50161311      78.49809834       4.478E-05      6.26    <-- DIS
     118      78.48995228      78.48651078       4.385E-05      6.29    <-- DIS
     119      78.47861198      78.47519277       4.357E-05      6.33    <-- DIS
     120      78.46755128      78.46410631       4.391E-05      6.37    <-- DIS
     121      78.45673117      78.45321512       4.482E-05      6.41    <-- DIS
     122      78.44611442      78.44248448       4.628E-05      6.44    <-- DIS
     123      78.43566550      78.43188115       4.825E-05      6.48    <-- DIS
     124      78.42535040      78.42137324       5.072E-05      6.52    <-- DIS
     125      78.41513655      78.41093013       5.365E-05      6.55    <-- DIS
     126      78.40499272      78.40052235       5.702E-05      6.59    <-- DIS
     127      78.39488890      78.39012151       6.082E-05      6.63    <-- DIS
     128      78.38479622      78.37970018       6.502E-05      6.66    <-- DIS
     129      78.37468683      78.36923186       6.961E-05      6.70    <-- DIS
     130      78.36453388      78.35869087       7.457E-05      6.74    <-- DIS
     131      78.35431136      78.34805231       7.989E-05      6.77    <-- DIS
     132      78.34399411      78.33729198       8.555E-05      6.81    <-- DIS
     133      78.33355769      78.32638634       9.156E-05      6.85    <-- DIS
     134      78.32297839      78.31531246       9.789E-05      6.88    <-- DIS
     135      78.31223311      78.30404798       1.045E-04      6.92    <-- DIS
     136      78.30129937      78.29257110       1.115E-04      6.96    <-- DIS
     137      78.29015526      78.28086051       1.187E-04      7.00    <-- DIS
     138      78.27877939      78.26889540       1.263E-04      7.03    <-- DIS
     139      78.26715091      78.25665547       1.341E-04      7.07    <-- DIS
     140      78.25524944      78.24412088       1.422E-04      7.11    <-- DIS
     141      78.24305511      78.23127229       1.506E-04      7.14    <-- DIS
     142      78.23054854      78.21809084       1.593E-04      7.18    <-- DIS
     143      78.21771085      78.20455820       1.682E-04      7.22    <-- DIS
     144      78.20452365      78.19065659       1.773E-04      7.25    <-- DIS
     145      78.19096911      78.17636876       1.868E-04      7.29    <-- DIS
     146      78.17702993      78.16167810       1.964E-04      7.33    <-- DIS
     147      78.16268942      78.14656866       2.063E-04      7.37    <-- DIS
     148      78.14793152      78.13102518       2.164E-04      7.41    <-- DIS
     149      78.13274085      78.11503316       2.267E-04      7.47    <-- DIS
     150      78.11710275      78.09857893       2.372E-04      7.51    <-- DIS
     151      78.10100337      78.08164972       2.479E-04      7.54    <-- DIS
     152      78.08442969      78.06423370       2.587E-04      7.58    <-- DIS
     153      78.06736963      78.04632010       2.697E-04      7.61    <-- DIS
     154      78.04981207      78.02789923       2.808E-04      7.65    <-- DIS
     155      78.03174699      78.00896261       2.921E-04      7.69    <-- DIS
     156      78.01316546      77.98950300       3.034E-04      7.72    <-- DIS
     157      77.99405978      77.96951449       3.148E-04      7.76    <-- DIS
     158      77.97442352      77.94899257       3.263E-04      7.80    <-- DIS
     159      77.95425157      77.92793418       3.377E-04      7.83    <-- DIS
     160      77.93354024      77.90633778       3.492E-04      7.87    <-- DIS
     161      77.91228731      77.88420336       3.606E-04      7.90    <-- DIS
     162      77.89049202      77.86153253       3.719E-04      7.94    <-- DIS
     163      77.86815521      77.83832846       3.832E-04      7.98    <-- DIS
     164      77.84527922      77.81459596       3.943E-04      8.01    <-- DIS
     165      77.82186803      77.79034145       4.053E-04      8.05    <-- DIS
     166      77.79792715      77.76557288       4.160E-04      8.08    <-- DIS
     167      77.77346368      77.74029977       4.266E-04      8.12    <-- DIS
     168      77.74848623      77.71453306       4.369E-04      8.16    <-- DIS
     169      77.72300488      77.68828510       4.469E-04      8.19    <-- DIS
     170      77.69703110      77.66156949       4.566E-04      8.23    <-- DIS
     171      77.67057771      77.63440101       4.660E-04      8.26    <-- DIS
     172      77.64365870      77.60679545       4.750E-04      8.30    <-- DIS
     173      77.61628917      77.57876947       4.836E-04      8.34    <-- DIS
     174      77.58848516      77.55034043       4.919E-04      8.37    <-- DIS
     175      77.56026353      77.52152623       4.997E-04      8.41    <-- DIS
     176      77.53164177      77.49234511       5.071E-04      8.44    <-- DIS
     177      77.50263781      77.46281549       5.141E-04      8.48    <-- DIS
     178      77.47326993      77.43295572       5.206E-04      8.52    <-- DIS
     179      77.44355645      77.40278396       5.268E-04      8.55    <-- DIS
     180      77.41351567      77.37231795       5.325E-04      8.59    <-- DIS
     181      77.38316559      77.34157483       5.378E-04      8.62    <-- DIS
     182      77.35252381      77.31057101       5.427E-04      8.66    <-- DIS
     183      77.32160730      77.27932194       5.472E-04      8.70    <-- DIS
     184      77.29043226      77.24784205       5.513E-04      8.73    <-- DIS
     185      77.25901400      77.21614455       5.552E-04      8.77    <-- DIS
     186      77.22736677      77.18424138       5.587E-04      8.80    <-- DIS
     187      77.19550362      77.15214307       5.620E-04      8.84    <-- DIS
     188      77.16343639      77.11985871       5.651E-04      8.88    <-- DIS
     189      77.13117551      77.08739585       5.679E-04      8.91    <-- DIS
     190      77.09873004      77.05476055       5.706E-04      8.95    <-- DIS
     191      77.06610756      77.02195729       5.732E-04      8.99    <-- DIS
     192      77.03331415      76.98898900       5.757E-04      9.02    <-- DIS
     193      77.00035443      76.95585714       5.782E-04      9.06    <-- DIS
     194      76.96723151      76.92256166       5.807E-04      9.09    <-- DIS
     195      76.93394706      76.88910114       5.833E-04      9.13    <-- DIS
     196      76.90050134      76.85547280       5.859E-04      9.17    <-- DIS
     197      76.86689326      76.82167263       5.886E-04      9.20    <-- DIS
     198      76.83312046      76.78769549       5.916E-04      9.24    <-- DIS
     199      76.79917939      76.75353521       5.947E-04      9.27    <-- DIS
     200      76.76506542      76.71918470       5.980E-04      9.31    <-- DIS
     201      76.73077293      76.68463609       6.016E-04      9.35    <-- DIS
     202      76.69629545      76.64988091       6.055E-04      9.38    <-- DIS
     203      76.66162578      76.61491016       6.097E-04      9.42    <-- DIS
     204      76.62675610      76.57971452       6.143E-04      9.45    <-- DIS
     205      76.59167815      76.54428445       6.192E-04      9.49    <-- DIS
     206      76.55638336      76.50861043       6.244E-04      9.53    <-- DIS
     207      76.52086298      76.47268302       6.300E-04      9.56    <-- DIS
     208      76.48510825      76.43649312       6.360E-04      9.60    <-- DIS
     209      76.44911057      76.40003206       6.424E-04      9.63    <-- DIS
     210      76.41286164      76.36329182       6.491E-04      9.67    <-- DIS
     211      76.37635362      76.32626516       6.562E-04      9.71    <-- DIS
     212      76.33957928      76.28894580       6.637E-04      9.74    <-- DIS
     213      76.30253218      76.25132857       6.715E-04      9.78    <-- DIS
     214      76.26520683      76.21340959       6.796E-04      9.81    <-- DIS
     215      76.22759881      76.17518639       6.881E-04      9.85    <-- DIS
     216      76.18970493      76.13665807       6.967E-04      9.89    <-- DIS
     217      76.15152340      76.09782545       7.056E-04      9.92    <-- DIS
     218      76.11305392      76.05869112       7.147E-04      9.96    <-- DIS
     219      76.07429782      76.01925965       7.240E-04      9.99    <-- DIS
     220      76.03525817      75.97953758       7.334E-04     10.03    <-- DIS
     221      75.99593988      75.93953356       7.428E-04     10.07    <-- DIS
     222      75.95634977      75.89925838       7.522E-04     10.10    <-- DIS
     223      75.91649663      75.85872497       7.616E-04     10.14    <-- DIS
     224      75.87639126      75.81794845       7.708E-04     10.17    <-- DIS
     225      75.83604650      75.77694606       7.799E-04     10.21    <-- DIS
     226      75.79547722      75.73573715       7.888E-04     10.25    <-- DIS
     227      75.75470028      75.69434308       7.974E-04     10.28    <-- DIS
     228      75.71373448      75.65278711       8.056E-04     10.32    <-- DIS
     229      75.67260051      75.61109430       8.135E-04     10.35    <-- DIS
     230      75.63132078      75.56929130       8.208E-04     10.39    <-- DIS
     231      75.58991936      75.52740622       8.277E-04     10.43    <-- DIS
     232      75.54842181      75.48546842       8.340E-04     10.46    <-- DIS
     233      75.50685497      75.44350826       8.397E-04     10.50    <-- DIS
     234      75.46524683      75.40155691       8.447E-04     10.54    <-- DIS
     235      75.42362629      75.35964609       8.490E-04     10.57    <-- DIS
     236      75.38202296      75.31780782       8.526E-04     10.61    <-- DIS
     237      75.34046693      75.27607418       8.554E-04     10.64    <-- DIS
     238      75.29898857      75.23447707       8.575E-04     10.68    <-- DIS
     239      75.25761825      75.19304800       8.587E-04     10.72    <-- DIS
     240      75.21638620      75.15181781       8.592E-04     10.75    <-- DIS
     241      75.17532224      75.11081652       8.588E-04     10.79    <-- DIS
     242      75.13445558      75.07007313       8.576E-04     10.82    <-- DIS
     243      75.09381468      75.02961545       8.557E-04     10.86    <-- DIS
     244      75.05342705      74.98946993       8.529E-04     10.90    <-- DIS
     245      75.01331911      74.94966163       8.493E-04     10.93    <-- DIS
     246      74.97351606      74.91021402       8.450E-04     10.97    <-- DIS
     247      74.93404178      74.87114899       8.400E-04     11.00    <-- DIS
     248      74.89491875      74.83248677       8.343E-04     11.04    <-- DIS
     249      74.85616797      74.79424593       8.279E-04     11.08    <-- DIS
     250      74.81780895      74.75644335       8.209E-04     11.11    <-- DIS
     251      74.77985965      74.71909425       8.133E-04     11.15    <-- DIS
     252      74.74233652      74.68221224       8.051E-04     11.18    <-- DIS
     253      74.70525445      74.64580932       7.964E-04     11.22    <-- DIS
     254      74.66862685      74.60989601       7.872E-04     11.26    <-- DIS
     255      74.63246569      74.57448133       7.775E-04     11.29    <-- DIS
     256      74.59678149      74.53957293       7.675E-04     11.33    <-- DIS
     257      74.56158342      74.50517715       7.571E-04     11.37    <-- DIS
     258      74.52687938      74.47129910       7.463E-04     11.40    <-- DIS
     259      74.49267599      74.43794274       7.353E-04     11.44    <-- DIS
     260      74.45897875      74.40511095       7.240E-04     11.47    <-- DIS
     261      74.42579202      74.37280562       7.124E-04     11.51    <-- DIS
     262      74.39311916      74.34102774       7.007E-04     11.55    <-- DIS
     263      74.36096256      74.30977743       6.888E-04     11.58    <-- DIS
     264      74.32932372      74.27905405       6.768E-04     11.62    <-- DIS
     265      74.29820330      74.24885624       6.646E-04     11.65    <-- DIS
     266      74.26760119      74.21918199       6.524E-04     11.69    <-- DIS
     267      74.23751657      74.19002870       6.401E-04     11.73    <-- DIS
     268      74.20794797      74.16139323       6.277E-04     11.76    <-- DIS
     269      74.17889329      74.13327194       6.154E-04     11.80    <-- DIS
     270      74.15034991      74.10566075       6.030E-04     11.83    <-- DIS
     271      74.12231467      74.07855518       5.907E-04     11.87    <-- DIS
     272      74.09478394      74.05195035       5.784E-04     11.91    <-- DIS
     273      74.06775366      74.02584110       5.662E-04     11.94    <-- DIS
     274      74.04121939      74.00022192       5.540E-04     11.98    <-- DIS
     275      74.01517633      73.97508707       5.419E-04     12.02    <-- DIS
     276      73.98961932      73.95043054       5.299E-04     12.05    <-- DIS
     277      73.96454296      73.92624612       5.180E-04     12.09    <-- DIS
     278      73.93994153      73.90252740       5.063E-04     12.12    <-- DIS
     279      73.91580909      73.87926781       4.946E-04     12.16    <-- DIS
     280      73.89213948      73.85646063       4.831E-04     12.20    <-- DIS
     281      73.86892635      73.83409899       4.717E-04     12.23    <-- DIS
     282      73.84616317      73.81217592       4.605E-04     12.27    <-- DIS
     283      73.82384325      73.79068437       4.494E-04     12.30    <-- DIS
     284      73.80195979      73.76961718       4.384E-04     12.34    <-- DIS
     285      73.78050584      73.74896714       4.276E-04     12.38    <-- DIS
     286      73.75947438      73.72872697       4.170E-04     12.41    <-- DIS
     287      73.73885829      73.70888937       4.066E-04     12.45    <-- DIS
     288      73.71865037      73.68944698       3.963E-04     12.48    <-- DIS
     289      73.69884337      73.67039243       3.862E-04     12.52    <-- DIS
     290      73.67943001      73.65171833       3.763E-04     12.56    <-- DIS
     291      73.66040294      73.63341729       3.665E-04     12.59    <-- DIS
     292      73.64175481      73.61548191       3.569E-04     12.63    <-- DIS
     293      73.62347823      73.59790481       3.475E-04     12.66    <-- DIS
     294      73.60556583      73.58067861       3.382E-04     12.70    <-- DIS
     295      73.58801020      73.56379593       3.292E-04     12.74    <-- DIS
     296      73.57080396      73.54724946       3.203E-04     12.77    <-- DIS
     297      73.55393974      73.53103185       3.115E-04     12.81    <-- DIS
     298      73.53741017      73.51513583       3.030E-04     12.84    <-- DIS
     299      73.52120790      73.49955413       2.946E-04     12.88    <-- DIS
     300      73.50532561      73.48427952       2.864E-04     12.92    <-- DIS
     301      73.48975599      73.46930480       2.784E-04     12.95    <-- DIS
     302      73.47449177      73.45462281       2.705E-04     12.99    <-- DIS
     303      73.45952572      73.44022641       2.628E-04     13.02    <-- DIS
     304      73.44485060      73.42610852       2.553E-04     13.06    <-- DIS
     305      73.43045926      73.41226206       2.479E-04     13.10    <-- DIS
     306      73.41634452      73.39868001       2.407E-04     13.13    <-- DIS
     307      73.40249929      73.38535540       2.336E-04     13.17    <-- DIS
     308      73.38891647      73.37228125       2.267E-04     13.20    <-- DIS
     309      73.37558902      73.35945065       2.200E-04     13.24    <-- DIS
     310      73.36250993      73.34685671       2.134E-04     13.28    <-- DIS
     311      73.34967221      73.33449258       2.070E-04     13.31    <-- DIS
     312      73.33706892      73.32235143       2.007E-04     13.35    <-- DIS
     313      73.32469313      73.31042646       1.946E-04     13.38    <-- DIS
     314      73.31253796      73.29871091       1.886E-04     13.42    <-- DIS
     315      73.30059655      73.28719804       1.828E-04     13.46    <-- DIS
     316      73.28886207      73.27588113       1.772E-04     13.49    <-- DIS
     317      73.27732771      73.26475348       1.716E-04     13.53    <-- DIS
     318      73.26598670      73.25380843       1.662E-04     13.57    <-- DIS
     319      73.25483228      73.24303932       1.610E-04     13.60    <-- DIS
     320      73.24385771      73.23243950       1.559E-04     13.64    <-- DIS
     321      73.23305626      73.22200237       1.510E-04     13.67    <-- DIS
     322      73.22242125      73.21172130       1.462E-04     13.71    <-- DIS
     323      73.21194597      73.20158968       1.415E-04     13.75    <-- DIS
     324      73.20162375      73.19160091       1.369E-04     13.78    <-- DIS
     325      73.19144791      73.18174839       1.325E-04     13.82    <-- DIS
     326      73.18141179      73.17202552       1.283E-04     13.85    <-- DIS
     327      73.17150870      73.16242567       1.241E-04     13.89    <-- DIS
     328      73.16173199      73.15294222       1.202E-04     13.93    <-- DIS
     329      73.15207496      73.14356854       1.163E-04     13.96    <-- DIS
     330      73.14253092      73.13429795       1.126E-04     14.00    <-- DIS
     331      73.13309316      73.12512377       1.090E-04     14.03    <-- DIS
     332      73.12375494      73.11603927       1.055E-04     14.07    <-- DIS
     333      73.11450949      73.10703768       1.022E-04     14.11    <-- DIS
     334      73.10535003      73.09811220       9.902E-05     14.14    <-- DIS
     335      73.09626970      73.08925596       9.596E-05     14.18    <-- DIS
     336      73.08726162      73.08046204       9.304E-05     14.22    <-- DIS
     337      73.07831885      73.07172344       9.026E-05     14.26    <-- DIS
     338      73.06943439      73.06303309       8.761E-05     14.29    <-- DIS
     339      73.06060116      73.05438383       8.511E-05     14.33    <-- DIS
     340      73.05181200      73.04576840       8.274E-05     14.36    <-- DIS
     341      73.04305968      73.03717946       8.051E-05     14.40    <-- DIS
     342      73.03433684      73.02860950       7.843E-05     14.44    <-- DIS
     343      73.02563605      73.02005093       7.649E-05     14.47    <-- DIS
     344      73.01694973      73.01149600       7.470E-05     14.51    <-- DIS
     345      73.00827018      73.00293678       7.306E-05     14.54    <-- DIS
     346      72.99958955      72.99436522       7.157E-05     14.58    <-- DIS
     347      72.99089986      72.98577305       7.024E-05     14.62    <-- DIS
     348      72.98219292      72.97715182       6.908E-05     14.65    <-- DIS
     349      72.97346037      72.96849286       6.808E-05     14.69    <-- DIS
     350      72.96469368      72.95978726       6.725E-05     14.73    <-- DIS
     351      72.95588407      72.95102587       6.660E-05     14.76    <-- DIS
     352      72.94702253      72.94219929       6.612E-05     14.80    <-- DIS
     353      72.93809982      72.93329782       6.584E-05     14.83    <-- DIS
     354      72.92910643      72.92431144       6.575E-05     14.87    <-- DIS
     355      72.92003256      72.91522982       6.587E-05     14.91    <-- DIS
     356      72.91086810      72.90604229       6.619E-05     14.94    <-- DIS
     357      72.90160262      72.89673780       6.674E-05     14.98    <-- DIS
     358      72.89222535      72.88730490       6.751E-05     15.01    <-- DIS
     359      72.88272515      72.87773173       6.852E-05     15.05    <-- DIS
     360      72.87309049      72.86800601       6.978E-05     15.09    <-- DIS
     361      72.86330942      72.85811496       7.130E-05     15.12    <-- DIS
     362      72.85336958      72.84804533       7.309E-05     15.16    <-- DIS
     363      72.84325812      72.83778335       7.516E-05     15.19    <-- DIS
     364      72.83296173      72.82731472       7.754E-05     15.23    <-- DIS
     365      72.82246659      72.81662455       8.023E-05     15.27    <-- DIS
     366      72.81175835      72.80569740       8.325E-05     15.30    <-- DIS
     367      72.80082210      72.79451718       8.661E-05     15.34    <-- DIS
     368      72.78964238      72.78306718       9.034E-05     15.37    <-- DIS
     369      72.77820311      72.77133003       9.445E-05     15.41    <-- DIS
     370      72.76648760      72.75928768       9.896E-05     15.45    <-- DIS
     371      72.75447853      72.74692141       1.039E-04     15.48    <-- DIS
     372      72.74215793      72.73421176       1.092E-04     15.52    <-- DIS
     373      72.72950717      72.72113858       1.151E-04     15.55    <-- DIS
     374      72.71650694      72.70768099       1.214E-04     15.59    <-- DIS
     375      72.70313725      72.69381739       1.282E-04     15.63    <-- DIS
     376      72.68937745      72.67952547       1.356E-04     15.66    <-- DIS
     377      72.67520618      72.66478223       1.435E-04     15.70    <-- DIS
     378      72.66060145      72.64956398       1.519E-04     15.73    <-- DIS
     379      72.64554061      72.63384641       1.610E-04     15.77    <-- DIS
     380      72.63000041      72.61760459       1.707E-04     15.81    <-- DIS
     381      72.61395700      72.60081306       1.810E-04     15.84    <-- DIS
     382      72.59738603      72.58344591       1.921E-04     15.88    <-- DIS
     383      72.58026266      72.56547681       2.038E-04     15.91    <-- DIS
     384      72.56256170      72.54687920       2.162E-04     15.95    <-- DIS
     385      72.54425761      72.52762632       2.293E-04     15.99    <-- DIS
     386      72.52532472      72.50769143       2.432E-04     16.02    <-- DIS
     387      72.50573724      72.48704789       2.578E-04     16.06    <-- DIS
     388      72.48546952      72.46566944       2.732E-04     16.09    <-- DIS
     389      72.46449611      72.44353032       2.894E-04     16.13    <-- DIS
     390      72.44279200      72.42060554       3.064E-04     16.16    <-- DIS
     391      72.42033284      72.39687111       3.241E-04     16.20    <-- DIS
     392      72.39709512      72.37230434       3.425E-04     16.24    <-- DIS
     393      72.37305643      72.34688408       3.618E-04     16.27    <-- DIS
     394      72.34819573      72.32059106       3.817E-04     16.31    <-- DIS
     395      72.32249366      72.29340822       4.023E-04     16.34    <-- DIS
     396      72.29593277      72.26532100       4.236E-04     16.38    <-- DIS
     397      72.26849788      72.23631770       4.455E-04     16.42    <-- DIS
     398      72.24017636      72.20638981       4.679E-04     16.45    <-- DIS
     399      72.21095848      72.17553233       4.908E-04     16.49    <-- DIS
     400      72.18083768      72.14374410       5.142E-04     16.52    <-- DIS
     401      72.14981092      72.11102807       5.378E-04     16.56    <-- DIS
     402      72.11787890      72.07739155       5.617E-04     16.60    <-- DIS
     403      72.08504641      72.04284648       5.858E-04     16.63    <-- DIS
     404      72.05132245      72.00740952       6.098E-04     16.67    <-- DIS
     405      72.01672053      71.97110227       6.338E-04     16.70    <-- DIS
     406      71.98125872      71.93395123       6.577E-04     16.74    <-- DIS
     407      71.94495980      71.89598787       6.811E-04     16.78    <-- DIS
     408      71.90785128      71.85724850       7.042E-04     16.81    <-- DIS
     409      71.86996534      71.81777416       7.267E-04     16.85    <-- DIS
     410      71.83133877      71.77761039       7.485E-04     16.88    <-- DIS
     411      71.79201280      71.73680691       7.696E-04     16.92    <-- DIS
     412      71.75203287      71.69541732       7.897E-04     16.96    <-- DIS
     413      71.71144832      71.65349871       8.087E-04     16.99    <-- DIS
     414      71.67031210      71.61111112       8.267E-04     17.03    <-- DIS
     415      71.62868033      71.56831716       8.434E-04     17.06    <-- DIS
     416      71.58661190      71.52518144       8.589E-04     17.10    <-- DIS
     417      71.54416799      71.48177007       8.729E-04     17.14    <-- DIS
     418      71.50141159      71.43815012       8.855E-04     17.17    <-- DIS
     419      71.45840702      71.39438916       8.967E-04     17.21    <-- DIS
     420      71.41521943      71.35055470       9.063E-04     17.24    <-- DIS
     421      71.37191434      71.30671380       9.144E-04     17.28    <-- DIS
     422      71.32855718      71.26293260       9.209E-04     17.32    <-- DIS
     423      71.28521283      71.21927598       9.258E-04     17.35    <-- DIS
     424      71.24194528      71.17580719       9.292E-04     17.39    <-- DIS
     425      71.19881725      71.13258758       9.311E-04     17.42    <-- DIS
     426      71.15588985      71.08967635       9.314E-04     17.46    <-- DIS
     427      71.11322235      71.04713034       9.303E-04     17.50    <-- DIS
     428      71.07087192      71.00500386       9.277E-04     17.53    <-- DIS
     429      71.02889341      70.96334853       9.236E-04     17.57    <-- DIS
     430      70.98733924      70.92221320       9.183E-04     17.60    <-- DIS
     431      70.94625918      70.88164384       9.116E-04     17.64    <-- DIS
     432      70.90570033      70.84168347       9.037E-04     17.68    <-- DIS
     433      70.86570695      70.80237210       8.945E-04     17.71    <-- DIS
     434      70.82632043      70.76374669       8.843E-04     17.75    <-- DIS
     435      70.78757920      70.72584110       8.729E-04     17.78    <-- DIS
     436      70.74951874      70.68868608       8.606E-04     17.82    <-- DIS
     437      70.71217146      70.65230922       8.473E-04     17.86    <-- DIS
     438      70.67556676      70.61673499       8.331E-04     17.89    <-- DIS
     439      70.63973095      70.58198468       8.181E-04     17.93    <-- DIS
     440      70.60468729      70.54807646       8.024E-04     17.96    <-- DIS
     441      70.57045596      70.51502538       7.861E-04     18.00    <-- DIS
     442      70.53705411      70.48284343       7.691E-04     18.04    <-- DIS
     443      70.50449586      70.45153957       7.517E-04     18.07    <-- DIS
     444      70.47279238      70.42111984       7.338E-04     18.11    <-- DIS
     445      70.44195193      70.39158739       7.155E-04     18.14    <-- DIS
     446      70.41197993      70.36294266       6.969E-04     18.18    <-- DIS
     447      70.38287909      70.33518346       6.781E-04     18.22    <-- DIS
     448      70.35464947      70.30830509       6.592E-04     18.25    <-- DIS
     449      70.32728862      70.28230055       6.401E-04     18.29    <-- DIS
     450      70.30079173      70.25716063       6.210E-04     18.32    <-- DIS
     451      70.27515177      70.23287414       6.020E-04     18.36    <-- DIS
     452      70.25035961      70.20942805       5.830E-04     18.40    <-- DIS
     453      70.22640424      70.18680769       5.642E-04     18.43    <-- DIS
     454      70.20327289      70.16499691       5.455E-04     18.47    <-- DIS
     455      70.18095124      70.14397830       5.271E-04     18.50    <-- DIS
     456      70.15942356      70.12373333       5.090E-04     18.54    <-- DIS
     457      70.13867290      70.10424252       4.911E-04     18.58    <-- DIS
     458      70.11868126      70.08548566       4.736E-04     18.61    <-- DIS
     459      70.09942972      70.06744191       4.565E-04     18.65    <-- DIS
     460      70.08089866      70.05008997       4.398E-04     18.68    <-- DIS
     461      70.06306786      70.03340824       4.235E-04     18.72    <-- DIS
     462      70.04591665      70.01737491       4.076E-04     18.76    <-- DIS
     463      70.02942406      70.00196811       3.922E-04     18.79    <-- DIS
     464      70.01356890      69.98716599       3.773E-04     18.83    <-- DIS
     465      69.99832994      69.97294685       3.628E-04     18.86    <-- DIS
     466      69.98368594      69.95928920       3.487E-04     18.90    <-- DIS
     467      69.96961579      69.94617182       3.352E-04     18.94    <-- DIS
     468      69.95609858      69.93357387       3.221E-04     18.97    <-- DIS
     469      69.94311365      69.92147490       3.095E-04     19.01    <-- DIS
     470      69.93064068      69.90985491       2.973E-04     19.04    <-- DIS
     471      69.91865972      69.89869441       2.856E-04     19.08    <-- DIS
     472      69.90715126      69.88797443       2.744E-04     19.12    <-- DIS
     473      69.89609625      69.87767653       2.636E-04     19.15    <-- DIS
     474      69.88547612      69.86778284       2.532E-04     19.19    <-- DIS
     475      69.87527285      69.85827608       2.433E-04     19.22    <-- DIS
     476      69.86546894      69.84913955       2.338E-04     19.26    <-- DIS
     477      69.85604743      69.84035712       2.247E-04     19.30    <-- DIS
     478      69.84699194      69.83191327       2.159E-04     19.33    <-- DIS
     479      69.83828665      69.82379306       2.076E-04     19.37    <-- DIS
     480      69.82991628      69.81598210       1.996E-04     19.40    <-- DIS
     481      69.82186615      69.80846661       1.919E-04     19.44    <-- DIS
     482      69.81412211      69.80123334       1.846E-04     19.48    <-- DIS
     483      69.80667058      69.79426960       1.777E-04     19.51    <-- DIS
     484      69.79949850      69.78756322       1.710E-04     19.55    <-- DIS
     485      69.79259335      69.78110256       1.647E-04     19.58    <-- DIS
     486      69.78594314      69.77487648       1.586E-04     19.62    <-- DIS
     487      69.77953636      69.76887433       1.528E-04     19.65    <-- DIS
     488      69.77336202      69.76308592       1.473E-04     19.69    <-- DIS
     489      69.76740958      69.75750154       1.420E-04     19.73    <-- DIS
     490      69.76166898      69.75211188       1.370E-04     19.76    <-- DIS
     491      69.75613059      69.74690810       1.322E-04     19.80    <-- DIS
     492      69.75078523      69.74188173       1.277E-04     19.83    <-- DIS
     493      69.74562413      69.73702471       1.233E-04     19.87    <-- DIS
     494      69.74063889      69.73232934       1.192E-04     19.91    <-- DIS
     495      69.73582154      69.72778829       1.152E-04     19.94    <-- DIS
     496      69.73116445      69.72339458       1.114E-04     19.98    <-- DIS
     497      69.72666036      69.71914154       1.078E-04     20.01    <-- DIS
     498      69.72230233      69.71502283       1.044E-04     20.05    <-- DIS
     499      69.71808376      69.71103242       1.012E-04     20.09    <-- DIS
     500      69.71399836      69.70716454       9.804E-05     20.12    <-- DIS
     501      69.71004014      69.70341371       9.507E-05     20.16    <-- DIS
     502      69.70620338      69.69977473       9.223E-05     20.19    <-- DIS
     503      69.70248266      69.69624261       8.953E-05     20.23    <-- DIS
     504      69.69887279      69.69281265       8.696E-05     20.27    <-- DIS
     505      69.69536885      69.68948033       8.450E-05     20.30    <-- DIS
     506      69.69196615      69.68624137       8.215E-05     20.34    <-- DIS
     507      69.68866022      69.68309170       7.991E-05     20.37    <-- DIS
     508      69.68544680      69.68002745       7.777E-05     20.41    <-- DIS
     509      69.68232187      69.67704491       7.573E-05     20.45    <-- DIS
     510      69.67928156      69.67414058       7.379E-05     20.48    <-- DIS
     511      69.67632222      69.67131112       7.192E-05     20.52    <-- DIS
     512      69.67344035      69.66855335       7.015E-05     20.55    <-- DIS
     513      69.67063266      69.66586424       6.845E-05     20.59    <-- DIS
     514      69.66789597      69.66324091       6.682E-05     20.63    <-- DIS
     515      69.66522730      69.66068063       6.527E-05     20.66    <-- DIS
     516      69.66262377      69.65818079       6.378E-05     20.70    <-- DIS
     517      69.66008269      69.65573890       6.236E-05     20.73    <-- DIS
     518      69.65760145      69.65335261       6.100E-05     20.77    <-- DIS
     519      69.65517761      69.65101966       5.970E-05     20.81    <-- DIS
     520      69.65280881      69.64873793       5.845E-05     20.84    <-- DIS
     521      69.65049284      69.64650538       5.725E-05     20.88    <-- DIS
     522      69.64822757      69.64432007       5.611E-05     20.91    <-- DIS
     523      69.64601099      69.64218016       5.501E-05     20.95    <-- DIS
     524      69.64384118      69.64008388       5.395E-05     20.99    <-- DIS
     525      69.64171631      69.63802958       5.294E-05     21.02    <-- DIS
     526      69.63963464      69.63601566       5.197E-05     21.06    <-- DIS
     527      69.63759451      69.63404061       5.104E-05     21.09    <-- DIS
     528      69.63559436      69.63210297       5.014E-05     21.13    <-- DIS
     529      69.63363267      69.63020139       4.928E-05     21.17    <-- DIS
     530      69.63170803      69.62833454       4.845E-05     21.20    <-- DIS
     531      69.62981907      69.62650119       4.765E-05     21.24    <-- DIS
     532      69.62796449      69.62470014       4.688E-05     21.27    <-- DIS
     533      69.62614306      69.62293026       4.615E-05     21.31    <-- DIS
     534      69.62435360      69.62119047       4.543E-05     21.35    <-- DIS
     535      69.62259500      69.61947975       4.475E-05     21.38    <-- DIS
     536      69.62086618      69.61779711       4.408E-05     21.42    <-- DIS
     537      69.61916613      69.61614162       4.345E-05     21.45    <-- DIS
     538      69.61749388      69.61451238       4.283E-05     21.49    <-- DIS
     539      69.61584850      69.61290854       4.223E-05     21.53    <-- DIS
     540      69.61422911      69.61132930       4.166E-05     21.56    <-- DIS
     541      69.61263486      69.60977387       4.110E-05     21.60    <-- DIS
     542      69.61106496      69.60824153       4.056E-05     21.63    <-- DIS
     543      69.60951864      69.60673155       4.004E-05     21.67    <-- DIS
     544      69.60799517      69.60524327       3.954E-05     21.71    <-- DIS
     545      69.60649385      69.60377604       3.905E-05     21.74    <-- DIS
     546      69.60501401      69.60232925       3.857E-05     21.78    <-- DIS
     547      69.60355502      69.60090231       3.811E-05     21.81    <-- DIS
     548      69.60211626      69.59949466       3.767E-05     21.85    <-- DIS
     549      69.60069717      69.59810576       3.723E-05     21.89    <-- DIS
     550      69.59929717      69.59673509       3.681E-05     21.92    <-- DIS
     551      69.59791575      69.59538217       3.640E-05     21.96    <-- DIS
     552      69.59655239      69.59404652       3.601E-05     21.99    <-- DIS
     553      69.59520661      69.59272769       3.562E-05     22.03    <-- DIS
     554      69.59387794      69.59142526       3.524E-05     22.07    <-- DIS
     555      69.59256593      69.59013880       3.488E-05     22.10    <-- DIS
     556      69.59127017      69.58886793       3.452E-05     22.14    <-- DIS
     557      69.58999024      69.58761226       3.417E-05     22.17    <-- DIS
     558      69.58872576      69.58637143       3.383E-05     22.21    <-- DIS
     559      69.58747634      69.58514509       3.350E-05     22.25    <-- DIS
     560      69.58624163      69.58393291       3.318E-05     22.28    <-- DIS
     561      69.58502128      69.58273456       3.286E-05     22.32    <-- DIS
     562      69.58381497      69.58154974       3.256E-05     22.35    <-- DIS
     563      69.58262238      69.58037815       3.225E-05     22.39    <-- DIS
     564      69.58144319      69.57921951       3.196E-05     22.43    <-- DIS
     565      69.58027713      69.57807354       3.167E-05     22.46    <-- DIS
     566      69.57912390      69.57693998       3.139E-05     22.50    <-- DIS
     567      69.57798325      69.57581857       3.111E-05     22.53    <-- DIS
     568      69.57685490      69.57470908       3.084E-05     22.57    <-- DIS
     569      69.57573861      69.57361126       3.058E-05     22.61    <-- DIS
     570      69.57463413      69.57252490       3.032E-05     22.64    <-- DIS
     571      69.57354125      69.57144978       3.006E-05     22.68    <-- DIS
     572      69.57245972      69.57038568       2.981E-05     22.71    <-- DIS
     573      69.57138935      69.56933241       2.957E-05     22.75    <-- DIS
     574      69.57032991      69.56828976       2.933E-05     22.79    <-- DIS
     575      69.56928122      69.56725755       2.909E-05     22.82    <-- DIS
     576      69.56824308      69.56623561       2.886E-05     22.86    <-- DIS
     577      69.56721530      69.56522374       2.863E-05     22.89    <-- DIS
     578      69.56619770      69.56422179       2.840E-05     22.93    <-- DIS
     579      69.56519012      69.56322959       2.818E-05     22.97    <-- DIS
     580      69.56419237      69.56224698       2.797E-05     23.00    <-- DIS
     581      69.56320431      69.56127381       2.775E-05     23.04    <-- DIS
     582      69.56222577      69.56030993       2.754E-05     23.07    <-- DIS
     583      69.56125660      69.55935519       2.734E-05     23.11    <-- DIS
     584      69.56029665      69.55840946       2.713E-05     23.15    <-- DIS
     585      69.55934579      69.55747259       2.693E-05     23.18    <-- DIS
     586      69.55840387      69.55654447       2.673E-05     23.22    <-- DIS
     587      69.55747077      69.55562496       2.654E-05     23.25    <-- DIS
     588      69.55654634      69.55471394       2.634E-05     23.29    <-- DIS
     589      69.55563047      69.55381128       2.616E-05     23.33    <-- DIS
     590      69.55472303      69.55291688       2.597E-05     23.36    <-- DIS
     591      69.55382390      69.55203062       2.578E-05     23.40    <-- DIS
     592      69.55293298      69.55115238       2.560E-05     23.43    <-- DIS
     593      69.55205014      69.55028207       2.542E-05     23.47    <-- DIS
     594      69.55117528      69.54941957       2.524E-05     23.51    <-- DIS
     595      69.55030829      69.54856479       2.507E-05     23.54    <-- DIS
     596      69.54944907      69.54771763       2.490E-05     23.58    <-- DIS
     597      69.54859751      69.54687799       2.472E-05     23.61    <-- DIS
     598      69.54775353      69.54604577       2.456E-05     23.65    <-- DIS
     599      69.54691702      69.54522089       2.439E-05     23.69    <-- DIS
     600      69.54608789      69.54440325       2.422E-05     23.72    <-- DIS
     601      69.54526605      69.54359277       2.406E-05     23.77    <-- DIS
     602      69.54445142      69.54278937       2.390E-05     23.80    <-- DIS
     603      69.54364390      69.54199295       2.374E-05     23.84    <-- DIS
     604      69.54284341      69.54120344       2.358E-05     23.87    <-- DIS
     605      69.54204987      69.54042076       2.343E-05     23.91    <-- DIS
     606      69.54126319      69.53964483       2.327E-05     23.95    <-- DIS
     607      69.54048331      69.53887558       2.312E-05     23.98    <-- DIS
     608      69.53971014      69.53811292       2.297E-05     24.02    <-- DIS
     609      69.53894360      69.53735680       2.282E-05     24.05    <-- DIS
     610      69.53818363      69.53660713       2.267E-05     24.09    <-- DIS
     611      69.53743014      69.53586384       2.253E-05     24.13    <-- DIS
     612      69.53668308      69.53512687       2.238E-05     24.16    <-- DIS
     613      69.53594236      69.53439615       2.224E-05     24.20    <-- DIS
     614      69.53520792      69.53367162       2.209E-05     24.23    <-- DIS
     615      69.53447970      69.53295320       2.195E-05     24.27    <-- DIS
     616      69.53375763      69.53224084       2.181E-05     24.31    <-- DIS
     617      69.53304165      69.53153447       2.168E-05     24.34    <-- DIS
     618      69.53233168      69.53083404       2.154E-05     24.38    <-- DIS
     619      69.53162768      69.53013947       2.140E-05     24.41    <-- DIS
     620      69.53092958      69.52945072       2.127E-05     24.45    <-- DIS
     621      69.53023731      69.52876773       2.114E-05     24.49    <-- DIS
     622      69.52955083      69.52809043       2.100E-05     24.52    <-- DIS
     623      69.52887007      69.52741877       2.087E-05     24.56    <-- DIS
     624      69.52819497      69.52675270       2.074E-05     24.59    <-- DIS
     625      69.52752549      69.52609216       2.062E-05     24.63    <-- DIS
     626      69.52686156      69.52543710       2.049E-05     24.67    <-- DIS
     627      69.52620314      69.52478747       2.036E-05     24.70    <-- DIS
     628      69.52555016      69.52414321       2.024E-05     24.74    <-- DIS
     629      69.52490258      69.52350427       2.011E-05     24.77    <-- DIS
     630      69.52426035      69.52287060       1.999E-05     24.81    <-- DIS
     631      69.52362341      69.52224216       1.987E-05     24.85    <-- DIS
     632      69.52299171      69.52161889       1.975E-05     24.88    <-- DIS
     633      69.52236521      69.52100075       1.963E-05     24.92    <-- DIS
     634      69.52174385      69.52038769       1.951E-05     24.95    <-- DIS
     635      69.52112760      69.51977966       1.939E-05     24.99    <-- DIS
     636      69.52051640      69.51917661       1.927E-05     25.03    <-- DIS
     637      69.51991020      69.51857851       1.916E-05     25.06    <-- DIS
     638      69.51930896      69.51798530       1.904E-05     25.10    <-- DIS
     639      69.51871263      69.51739694       1.893E-05     25.13    <-- DIS
     640      69.51812118      69.51681339       1.881E-05     25.17    <-- DIS
     641      69.51753455      69.51623460       1.870E-05     25.21    <-- DIS
     642      69.51695270      69.51566053       1.859E-05     25.24    <-- DIS
     643      69.51637559      69.51509115       1.848E-05     25.28    <-- DIS
     644      69.51580318      69.51452640       1.837E-05     25.32    <-- DIS
     645      69.51523542      69.51396625       1.826E-05     25.35    <-- DIS
     646      69.51467228      69.51341066       1.815E-05     25.39    <-- DIS
     647      69.51411371      69.51285958       1.804E-05     25.42    <-- DIS
     648      69.51355968      69.51231298       1.793E-05     25.46    <-- DIS
     649      69.51301013      69.51177082       1.783E-05     25.50    <-- DIS
     650      69.51246504      69.51123306       1.772E-05     25.53    <-- DIS
     651      69.51192437      69.51069966       1.762E-05     25.57    <-- DIS
     652      69.51138807      69.51017058       1.752E-05     25.60    <-- DIS
     653      69.51085611      69.50964579       1.741E-05     25.64    <-- DIS
     654      69.51032845      69.50912525       1.731E-05     25.68    <-- DIS
     655      69.50980506      69.50860892       1.721E-05     25.71    <-- DIS
     656      69.50928589      69.50809677       1.711E-05     25.75    <-- DIS
     657      69.50877091      69.50758875       1.701E-05     25.78    <-- DIS
     658      69.50826009      69.50708485       1.691E-05     25.82    <-- DIS
     659      69.50775339      69.50658501       1.681E-05     25.86    <-- DIS
     660      69.50725077      69.50608921       1.671E-05     25.89    <-- DIS
     661      69.50675220      69.50559742       1.661E-05     25.93    <-- DIS
     662      69.50625765      69.50510959       1.652E-05     25.96    <-- DIS
     663      69.50576708      69.50462569       1.642E-05     26.00    <-- DIS
     664      69.50528046      69.50414570       1.633E-05     26.04    <-- DIS
     665      69.50479775      69.50366958       1.623E-05     26.07    <-- DIS
     666      69.50431892      69.50319729       1.614E-05     26.11    <-- DIS
     667      69.50384394      69.50272881       1.604E-05     26.14    <-- DIS
     668      69.50337278      69.50226410       1.595E-05     26.18    <-- DIS
     669      69.50290540      69.50180313       1.586E-05     26.22    <-- DIS
     670      69.50244178      69.50134587       1.577E-05     26.25    <-- DIS
     671      69.50198188      69.50089229       1.568E-05     26.29    <-- DIS
     672      69.50152567      69.50044235       1.559E-05     26.32    <-- DIS
     673      69.50107311      69.49999604       1.550E-05     26.36    <-- DIS
     674      69.50062419      69.49955331       1.541E-05     26.40    <-- DIS
     675      69.50017887      69.49911414       1.532E-05     26.43    <-- DIS
     676      69.49973712      69.49867850       1.523E-05     26.47    <-- DIS
     677      69.49929891      69.49824637       1.514E-05     26.50    <-- DIS
     678      69.49886420      69.49781770       1.506E-05     26.54    <-- DIS
     679      69.49843298      69.49739247       1.497E-05     26.58    <-- DIS
     680      69.49800522      69.49697066       1.489E-05     26.61    <-- DIS
     681      69.49758088      69.49655223       1.480E-05     26.65    <-- DIS
     682      69.49715993      69.49613716       1.472E-05     26.69    <-- DIS
     683      69.49674236      69.49572543       1.463E-05     26.72    <-- DIS
     684      69.49632812      69.49531699       1.455E-05     26.76    <-- DIS
     685      69.49591720      69.49491183       1.447E-05     26.79    <-- DIS
     686      69.49550957      69.49450993       1.438E-05     26.83    <-- DIS
     687      69.49510520      69.49411124       1.430E-05     26.87    <-- DIS
     688      69.49470405      69.49371575       1.422E-05     26.90    <-- DIS
     689      69.49430612      69.49332343       1.414E-05     26.94    <-- DIS
     690      69.49391137      69.49293426       1.406E-05     26.97    <-- DIS
     691      69.49351977      69.49254821       1.398E-05     27.01    <-- DIS
     692      69.49313130      69.49216524       1.390E-05     27.05    <-- DIS
     693      69.49274593      69.49178535       1.382E-05     27.08    <-- DIS
     694      69.49236365      69.49140850       1.374E-05     27.12    <-- DIS
     695      69.49198441      69.49103467       1.367E-05     27.15    <-- DIS
     696      69.49160820      69.49066384       1.359E-05     27.19    <-- DIS
     697      69.49123500      69.49029597       1.351E-05     27.23    <-- DIS
     698      69.49086478      69.48993105       1.344E-05     27.26    <-- DIS
     699      69.49049751      69.48956906       1.336E-05     27.30    <-- DIS
     700      69.49013318      69.48920996       1.329E-05     27.33    <-- DIS
     701      69.48977175      69.48885374       1.321E-05     27.37    <-- DIS
     702      69.48941321      69.48850036       1.314E-05     27.41    <-- DIS
     703      69.48905752      69.48814982       1.306E-05     27.44    <-- DIS
     704      69.48870468      69.48780208       1.299E-05     27.48    <-- DIS
     705      69.48835465      69.48745713       1.292E-05     27.51    <-- DIS
     706      69.48800741      69.48711494       1.284E-05     27.55    <-- DIS
     707      69.48766294      69.48677548       1.277E-05     27.59    <-- DIS
     708      69.48732122      69.48643874       1.270E-05     27.62    <-- DIS
     709      69.48698223      69.48610470       1.263E-05     27.66    <-- DIS
     710      69.48664593      69.48577333       1.256E-05     27.69    <-- DIS
     711      69.48631232      69.48544461       1.249E-05     27.73    <-- DIS
     712      69.48598137      69.48511852       1.242E-05     27.77    <-- DIS
     713      69.48565306      69.48479504       1.235E-05     27.80    <-- DIS
     714      69.48532736      69.48447414       1.228E-05     27.84    <-- DIS
     715      69.48500426      69.48415582       1.221E-05     27.87    <-- DIS
     716      69.48468374      69.48384004       1.214E-05     27.91    <-- DIS
     717      69.48436577      69.48352678       1.207E-05     27.95    <-- DIS
     718      69.48405034      69.48321603       1.201E-05     27.98    <-- DIS
     719      69.48373741      69.48290777       1.194E-05     28.02    <-- DIS
     720      69.48342699      69.48260197       1.187E-05     28.05    <-- DIS
     721      69.48311903      69.48229862       1.181E-05     28.09    <-- DIS
     722      69.48281353      69.48199769       1.174E-05     28.13    <-- DIS
     723      69.48251047      69.48169917       1.168E-05     28.16    <-- DIS
     724      69.48220981      69.48140303       1.161E-05     28.20    <-- DIS
     725      69.48191156      69.48110927       1.155E-05     28.23    <-- DIS
     726      69.48161568      69.48081785       1.148E-05     28.27    <-- DIS
     727      69.48132215      69.48052876       1.142E-05     28.31    <-- DIS
     728      69.48103097      69.48024199       1.136E-05     28.34    <-- DIS
     729      69.48074210      69.47995751       1.129E-05     28.38    <-- DIS
     730      69.48045554      69.47967530       1.123E-05     28.42    <-- DIS
     731      69.48017125      69.47939535       1.117E-05     28.45    <-- DIS
     732      69.47988924      69.47911763       1.111E-05     28.49    <-- DIS
     733      69.47960946      69.47884214       1.104E-05     28.52    <-- DIS
     734      69.47933192      69.47856885       1.098E-05     28.56    <-- DIS
     735      69.47905658      69.47829774       1.092E-05     28.60    <-- DIS
     736      69.47878344      69.47802881       1.086E-05     28.63    <-- DIS
     737      69.47851247      69.47776202       1.080E-05     28.67    <-- DIS
     738      69.47824366      69.47749736       1.074E-05     28.70    <-- DIS
     739      69.47797700      69.47723482       1.068E-05     28.74    <-- DIS
     740      69.47771245      69.47697438       1.062E-05     28.78    <-- DIS
     741      69.47745001      69.47671602       1.056E-05     28.81    <-- DIS
     742      69.47718966      69.47645973       1.051E-05     28.85    <-- DIS
     743      69.47693138      69.47620548       1.045E-05     28.88    <-- DIS
     744      69.47667516      69.47595327       1.039E-05     28.92    <-- DIS
     745      69.47642098      69.47570307       1.033E-05     28.96    <-- DIS
     746      69.47616882      69.47545487       1.028E-05     28.99    <-- DIS
     747      69.47591867      69.47520866       1.022E-05     29.03    <-- DIS
     748      69.47567051      69.47496441       1.016E-05     29.06    <-- DIS
     749      69.47542433      69.47472212       1.011E-05     29.10    <-- DIS
     750      69.47518011      69.47448177       1.005E-05     29.14    <-- DIS
     751      69.47493783      69.47424333       9.996E-06     29.17    <-- DIS
     752      69.47469747      69.47400680       9.941E-06     29.21    <-- DIS
     753      69.47445904      69.47377216       9.887E-06     29.24    <-- DIS
     754      69.47422250      69.47353940       9.832E-06     29.28    <-- DIS
     755      69.47398784      69.47330850       9.778E-06     29.32    <-- DIS
     756      69.47375505      69.47307944       9.725E-06     29.35    <-- DIS
     757      69.47352411      69.47285222       9.671E-06     29.39    <-- DIS
     758      69.47329501      69.47262681       9.618E-06     29.42    <-- DIS
     759      69.47306773      69.47240320       9.565E-06     29.46    <-- DIS
     760      69.47284227      69.47218138       9.513E-06     29.50    <-- DIS
     761      69.47261859      69.47196133       9.461E-06     29.53    <-- DIS
     762      69.47239670      69.47174304       9.409E-06     29.57    <-- DIS
     763      69.47217657      69.47152650       9.357E-06     29.60    <-- DIS
     764      69.47195820      69.47131168       9.306E-06     29.64    <-- DIS
     765      69.47174156      69.47109859       9.255E-06     29.68    <-- DIS
     766      69.47152665      69.47088720       9.205E-06     29.71    <-- DIS
     767      69.47131344      69.47067749       9.154E-06     29.75    <-- DIS
     768      69.47110194      69.47046947       9.104E-06     29.78    <-- DIS
     769      69.47089211      69.47026310       9.054E-06     29.82    <-- DIS
     770      69.47068396      69.47005839       9.005E-06     29.86    <-- DIS
     771      69.47047746      69.46985531       8.956E-06     29.89    <-- DIS
     772      69.47027260      69.46965385       8.907E-06     29.93    <-- DIS
     773      69.47006938      69.46945401       8.858E-06     29.97    <-- DIS
     774      69.46986777      69.46925576       8.810E-06     30.00    <-- DIS
     775      69.46966777      69.46905910       8.762E-06     30.04    <-- DIS
     776      69.46946935      69.46886401       8.714E-06     30.07    <-- DIS
[...]
  WF centre and spread   16  (  1.461689,  0.020914,  8.774292 )     3.45361959
  WF centre and spread   17  (  3.517696, -0.711733, 10.467488 )     6.93049803
  WF centre and spread   18  (  1.299977,  1.415926,  7.993981 )     4.49459804
  WF centre and spread   19  (  1.635544, -0.011585,  9.157582 )     3.34607181
  WF centre and spread   20  (  1.484529,  0.013116,  8.974920 )     3.22563712
  Sum of centres and spreads (  2.960830,  4.704509,160.435919 )    86.01490481

    195    -0.525E-03     0.0365158827       86.0149048148     121.98  <-- CONV
        O_D=      9.1415921 O_OD=      7.4287505 O_TOT=     86.0149048 <-- SPRD
 Delta: O_D= -0.3551757E-03 O_OD= -0.1694400E-03 O_TOT= -0.5246157E-03 <-- DLTA
 ------------------------------------------------------------------------------
 Cycle:    196
  WF centre and spread    1  ( -0.017602,  0.005771,  6.531227 )     2.57273531
  WF centre and spread    2  (  1.089211, -0.017611,  4.840806 )     5.80396354
  WF centre and spread    3  ( -0.559062,  0.933289,  4.840590 )     5.80645696
  WF centre and spread    4  (  0.081257, -0.015802,  6.696664 )     3.16844043
  WF centre and spread    5  ( -0.095211, -0.046464,  6.729116 )     3.47076200
  WF centre and spread    6  ( -0.789047, -1.367341,  8.891773 )     3.11919600
  WF centre and spread    7  (  0.929689, -1.691610,  7.718651 )     2.88030407
  WF centre and spread    8  ( -1.686369, -0.041562,  7.282244 )    11.94168799
  WF centre and spread    9  ( -0.753113, -1.469614,  9.046275 )     2.60808515
  WF centre and spread   10  ( -0.883151, -1.360508,  9.114303 )     3.14067413
  WF centre and spread   11  ( -0.724409,  1.289459,  8.787771 )     3.52548685
  WF centre and spread   12  (  0.579821,  1.832173,  7.992768 )     4.48015919
  WF centre and spread   13  ( -2.062452,  3.232035,  8.481682 )     5.54405906
  WF centre and spread   14  ( -0.712396,  1.469022,  9.017405 )     3.39022112
  WF centre and spread   15  ( -0.835755,  1.226603,  9.096329 )     3.11176928
  WF centre and spread   16  (  1.461407,  0.020927,  8.774110 )     3.45223207
  WF centre and spread   17  (  3.517704, -0.711731, 10.467462 )     6.93074478
  WF centre and spread   18  (  1.299983,  1.415927,  7.993980 )     4.49444585
  WF centre and spread   19  (  1.635903, -0.011482,  9.157825 )     3.34752064
  WF centre and spread   20  (  1.484425,  0.013005,  8.974947 )     3.22548139
  Sum of centres and spreads (  2.960835,  4.704487,160.435927 )    86.01442580

    196    -0.479E-03     0.0345883665       86.0144257999     122.00  <-- CONV
        O_D=      9.1412953 O_OD=      7.4285682 O_TOT=     86.0144258 <-- SPRD
 Delta: O_D= -0.2967521E-03 O_OD= -0.1822628E-03 O_TOT= -0.4790149E-03 <-- DLTA
 ------------------------------------------------------------------------------
 Cycle:    197
  WF centre and spread    1  ( -0.017668,  0.006051,  6.531241 )     2.57257024
  WF centre and spread    2  (  1.089199, -0.017604,  4.840765 )     5.80404576
  WF centre and spread    3  ( -0.559048,  0.933279,  4.840561 )     5.80650806
  WF centre and spread    4  (  0.081360, -0.015703,  6.696615 )     3.16802827
  WF centre and spread    5  ( -0.095253, -0.046856,  6.729160 )     3.47129109
  WF centre and spread    6  ( -0.788855, -1.367002,  8.891129 )     3.11511413
  WF centre and spread    7  (  0.929683, -1.691611,  7.718653 )     2.88030984
  WF centre and spread    8  ( -1.686397, -0.041592,  7.282217 )    11.94195278
  WF centre and spread    9  ( -0.753125, -1.469696,  9.046427 )     2.60895013
  WF centre and spread   10  ( -0.883324, -1.360749,  9.114818 )     3.14358444
  WF centre and spread   11  ( -0.724077,  1.288986,  8.787162 )     3.52342097
  WF centre and spread   12  (  0.579833,  1.832180,  7.992786 )     4.48001143
  WF centre and spread   13  ( -2.062445,  3.232005,  8.481626 )     5.54374564
  WF centre and spread   14  ( -0.712763,  1.469410,  9.017812 )     3.39139946
  WF centre and spread   15  ( -0.835715,  1.226705,  9.096569 )     3.11251599
  WF centre and spread   16  (  1.460983,  0.020945,  8.773821 )     3.45006943
  WF centre and spread   17  (  3.517729, -0.711720, 10.467430 )     6.93098233
  WF centre and spread   18  (  1.299996,  1.415934,  7.993998 )     4.49432380
  WF centre and spread   19  (  1.636460, -0.011324,  9.158174 )     3.34978430
  WF centre and spread   20  (  1.484262,  0.012823,  8.974992 )     3.22522001
  Sum of centres and spreads (  2.960835,  4.704463,160.435956 )    86.01382812

    197    -0.598E-03     0.0350394364       86.0138281200     122.02  <-- CONV
        O_D=      9.1413402 O_OD=      7.4279256 O_TOT=     86.0138281 <-- SPRD
 Delta: O_D=  0.4487569E-04 O_OD= -0.6425556E-03 O_TOT= -0.5976799E-03 <-- DLTA
 ------------------------------------------------------------------------------
 Cycle:    198
  WF centre and spread    1  ( -0.017674,  0.006073,  6.531244 )     2.57255174
  WF centre and spread    2  (  1.089196, -0.017594,  4.840774 )     5.80396454
  WF centre and spread    3  ( -0.559047,  0.933282,  4.840561 )     5.80647894
  WF centre and spread    4  (  0.081369, -0.015695,  6.696611 )     3.16800248
  WF centre and spread    5  ( -0.095256, -0.046888,  6.729163 )     3.47133010
  WF centre and spread    6  ( -0.788841, -1.366975,  8.891077 )     3.11478166
  WF centre and spread    7  (  0.929687, -1.691611,  7.718654 )     2.88028071
  WF centre and spread    8  ( -1.686392, -0.041582,  7.282240 )    11.94184926
  WF centre and spread    9  ( -0.753128, -1.469704,  9.046441 )     2.60902534
  WF centre and spread   10  ( -0.883340, -1.360770,  9.114862 )     3.14382433
  WF centre and spread   11  ( -0.724050,  1.288949,  8.787112 )     3.52325097
  WF centre and spread   12  (  0.579832,  1.832172,  7.992788 )     4.48004711
  WF centre and spread   13  ( -2.062463,  3.231998,  8.481592 )     5.54359264
  WF centre and spread   14  ( -0.712793,  1.469437,  9.017844 )     3.39146682
  WF centre and spread   15  ( -0.835713,  1.226713,  9.096585 )     3.11256851
  WF centre and spread   16  (  1.460953,  0.020947,  8.773792 )     3.44988077
  WF centre and spread   17  (  3.517733, -0.711714, 10.467432 )     6.93085209
  WF centre and spread   18  (  1.299999,  1.415936,  7.994007 )     4.49435116
  WF centre and spread   19  (  1.636507, -0.011311,  9.158191 )     3.34996547
  WF centre and spread   20  (  1.484248,  0.012807,  8.974996 )     3.22518360
  Sum of centres and spreads (  2.960828,  4.704469,160.435967 )    86.01324824

    198    -0.580E-03     0.0535515681       86.0132482417     122.05  <-- CONV
        O_D=      9.1412481 O_OD=      7.4274379 O_TOT=     86.0132482 <-- SPRD
 Delta: O_D= -0.9216115E-04 O_OD= -0.4877172E-03 O_TOT= -0.5798783E-03 <-- DLTA
 ------------------------------------------------------------------------------
 Cycle:    199
  WF centre and spread    1  ( -0.017690,  0.006134,  6.531250 )     2.57250791
  WF centre and spread    2  (  1.089189, -0.017574,  4.840795 )     5.80378322
  WF centre and spread    3  ( -0.559042,  0.933286,  4.840558 )     5.80641283
  WF centre and spread    4  (  0.081393, -0.015672,  6.696600 )     3.16793379
  WF centre and spread    5  ( -0.095265, -0.046977,  6.729172 )     3.47144365
  WF centre and spread    6  ( -0.788801, -1.366903,  8.890937 )     3.11389141
  WF centre and spread    7  (  0.929699, -1.691610,  7.718656 )     2.88021397
  WF centre and spread    8  ( -1.686382, -0.041556,  7.282298 )    11.94227943
  WF centre and spread    9  ( -0.753134, -1.469728,  9.046480 )     2.60923487
  WF centre and spread   10  ( -0.883379, -1.360824,  9.114979 )     3.14448436
  WF centre and spread   11  ( -0.723977,  1.288850,  8.786977 )     3.52279585
  WF centre and spread   12  (  0.579829,  1.832153,  7.992793 )     4.48013628
  WF centre and spread   13  ( -2.062510,  3.231984,  8.481508 )     5.54325037
  WF centre and spread   14  ( -0.712873,  1.469513,  9.017930 )     3.39165190
  WF centre and spread   15  ( -0.835704,  1.226734,  9.096627 )     3.11270678
  WF centre and spread   16  (  1.460872,  0.020951,  8.773718 )     3.44939855
  WF centre and spread   17  (  3.517748, -0.711702, 10.467432 )     6.93068633
  WF centre and spread   18  (  1.300005,  1.415940,  7.994028 )     4.49441878
  WF centre and spread   19  (  1.636631, -0.011278,  9.158243 )     3.35046674
  WF centre and spread   20  (  1.484211,  0.012759,  8.975008 )     3.22509782
  Sum of centres and spreads (  2.960820,  4.704479,160.435988 )    86.01279486

    199    -0.453E-03     0.0342447531       86.0127948562     122.07  <-- CONV
        O_D=      9.1415304 O_OD=      7.4267022 O_TOT=     86.0127949 <-- SPRD
 Delta: O_D=  0.2823900E-03 O_OD= -0.7357754E-03 O_TOT= -0.4533855E-03 <-- DLTA
 ------------------------------------------------------------------------------
 Cycle:    200
  WF centre and spread    1  ( -0.017722,  0.006250,  6.531259 )     2.57243541
  WF centre and spread    2  (  1.089179, -0.017543,  4.840824 )     5.80350962
  WF centre and spread    3  ( -0.559033,  0.933288,  4.840550 )     5.80629859
  WF centre and spread    4  (  0.081437, -0.015630,  6.696580 )     3.16779702
  WF centre and spread    5  ( -0.095281, -0.047144,  6.729189 )     3.47166757
  WF centre and spread    6  ( -0.788724, -1.366765,  8.890672 )     3.11220529
  WF centre and spread    7  (  0.929717, -1.691609,  7.718658 )     2.88010955
  WF centre and spread    8  ( -1.686364, -0.041509,  7.282399 )    11.94310612
  WF centre and spread    9  ( -0.753144, -1.469771,  9.046549 )     2.60962781
  WF centre and spread   10  ( -0.883451, -1.360925,  9.115198 )     3.14572659
  WF centre and spread   11  ( -0.723841,  1.288661,  8.786724 )     3.52193662
  WF centre and spread   12  (  0.579825,  1.832122,  7.992801 )     4.48027783
  WF centre and spread   13  ( -2.062586,  3.231962,  8.481368 )     5.54273891
  WF centre and spread   14  ( -0.713024,  1.469657,  9.018093 )     3.39201112
  WF centre and spread   15  ( -0.835687,  1.226773,  9.096706 )     3.11296503
  WF centre and spread   16  (  1.460715,  0.020957,  8.773583 )     3.44851921
  WF centre and spread   17  (  3.517777, -0.711694, 10.467425 )     6.93047501
  WF centre and spread   18  (  1.300014,  1.415947,  7.994063 )     4.49451027
  WF centre and spread   19  (  1.636863, -0.011215,  9.158345 )     3.35143945
  WF centre and spread   20  (  1.484140,  0.012673,  8.975030 )     3.22494511
  Sum of centres and spreads (  2.960810,  4.704487,160.436014 )    86.01230213

    200    -0.493E-03     0.0335513152       86.0123021274     122.09  <-- CONV
        O_D=      9.1418919 O_OD=      7.4258480 O_TOT=     86.0123021 <-- SPRD
 Delta: O_D=  0.3614248E-03 O_OD= -0.8541536E-03 O_TOT= -0.4927288E-03 <-- DLTA
 ------------------------------------------------------------------------------

 done

 Cycle:    201
  WF centre and spread    1  ( -0.017770,  0.006428,  6.531270 )     2.57233635
  WF centre and spread    2  (  1.089165, -0.017507,  4.840851 )     5.80322192
  WF centre and spread    3  ( -0.559021,  0.933284,  4.840534 )     5.80617018
  WF centre and spread    4  (  0.081505, -0.015564,  6.696548 )     3.16756721
  WF centre and spread    5  ( -0.095307, -0.047401,  6.729216 )     3.47201670
  WF centre and spread    6  ( -0.788605, -1.366551,  8.890265 )     3.10960025
  WF centre and spread    7  (  0.929737, -1.691608,  7.718662 )     2.87998835
  WF centre and spread    8  ( -1.686335, -0.041445,  7.282531 )    11.94396490
  WF centre and spread    9  ( -0.753159, -1.469833,  9.046653 )     2.61022927
  WF centre and spread   10  ( -0.883562, -1.361080,  9.115532 )     3.14762784
  WF centre and spread   11  ( -0.723633,  1.288371,  8.786340 )     3.52061276
  WF centre and spread   12  (  0.579821,  1.832084,  7.992813 )     4.48043146
  WF centre and spread   13  ( -2.062677,  3.231936,  8.481192 )     5.54220870
  WF centre and spread   14  ( -0.713258,  1.469881,  9.018343 )     3.39259181
  WF centre and spread   15  ( -0.835659,  1.226831,  9.096831 )     3.11338479
  WF centre and spread   16  (  1.460470,  0.020969,  8.773386 )     3.44719431
  WF centre and spread   17  (  3.517815, -0.711694, 10.467405 )     6.93034167
  WF centre and spread   18  (  1.300024,  1.415956,  7.994105 )     4.49458330
  WF centre and spread   19  (  1.637217, -0.011117,  9.158511 )     3.35295078
  WF centre and spread   20  (  1.484031,  0.012545,  8.975063 )     3.22472971
  Sum of centres and spreads (  2.960802,  4.704484,160.436050 )    86.01175227

    201    -0.550E-03     0.0354171127       86.0117522728     122.11  <-- CONV
        O_D=      9.1418657 O_OD=      7.4253243 O_TOT=     86.0117523 <-- SPRD
 Delta: O_D= -0.2617641E-04 O_OD= -0.5236782E-03 O_TOT= -0.5498546E-03 <-- DLTA
 ------------------------------------------------------------------------------
 Cycle:    202
  WF centre and spread    1  ( -0.017838,  0.006688,  6.531287 )     2.57219576
  WF centre and spread    2  (  1.089153, -0.017471,  4.840862 )     5.80301175
  WF centre and spread    3  ( -0.559002,  0.933268,  4.840505 )     5.80609200
  WF centre and spread    4  (  0.081602, -0.015471,  6.696501 )     3.16720568
  WF centre and spread    5  ( -0.095345, -0.047775,  6.729256 )     3.47251791
  WF centre and spread    6  ( -0.788430, -1.366239,  8.889678 )     3.10582608
  WF centre and spread    7  (  0.929756, -1.691608,  7.718668 )     2.87988553
  WF centre and spread    8  ( -1.686301, -0.041376,  7.282663 )    11.94477383
  WF centre and spread    9  ( -0.753178, -1.469917,  9.046799 )     2.61108117
  WF centre and spread   10  ( -0.883721, -1.361305,  9.116010 )     3.15036436
  WF centre and spread   11  ( -0.723335,  1.287951,  8.785796 )     3.51870133
  WF centre and spread   12  (  0.579820,  1.832048,  7.992834 )     4.48052611
  WF centre and spread   13  ( -2.062773,  3.231909,  8.481005 )     5.54176925
  WF centre and spread   14  ( -0.713596,  1.470210,  9.018705 )     3.39348373
  WF centre and spread   15  ( -0.835616,  1.226914,  9.097013 )     3.11401283
  WF centre and spread   16  (  1.460111,  0.020984,  8.773127 )     3.44528204
  WF centre and spread   17  (  3.517858, -0.711696, 10.467371 )     6.93025275
  WF centre and spread   18  (  1.300035,  1.415966,  7.994147 )     4.49458908
  WF centre and spread   19  (  1.637722, -0.010974,  9.158758 )     3.35509602
  WF centre and spread   20  (  1.483874,  0.012367,  8.975109 )     3.22444631
  Sum of centres and spreads (  2.960794,  4.704475,160.436092 )    86.01111350

    202    -0.639E-03     0.0375043420       86.0111135038     122.13  <-- CONV
        O_D=      9.1416714 O_OD=      7.4248798 O_TOT=     86.0111135 <-- SPRD
 Delta: O_D= -0.1942867E-03 O_OD= -0.4444823E-03 O_TOT= -0.6387690E-03 <-- DLTA
 ------------------------------------------------------------------------------
 Cycle:    203
  WF centre and spread    1  ( -0.017903,  0.006951,  6.531304 )     2.57205237
  WF centre and spread    2  (  1.089146, -0.017450,  4.840843 )     5.80300636
  WF centre and spread    3  ( -0.558980,  0.933248,  4.840474 )     5.80617365
  WF centre and spread    4  (  0.081699, -0.015378,  6.696454 )     3.16681747
  WF centre and spread    5  ( -0.095383, -0.048148,  6.729295 )     3.47301924
  WF centre and spread    6  ( -0.788255, -1.365924,  8.889093 )     3.10203225
  WF centre and spread    7  (  0.929762, -1.691609,  7.718674 )     2.87986323
  WF centre and spread    8  ( -1.686282, -0.041342,  7.282717 )    11.94521666
  WF centre and spread    9  ( -0.753196, -1.469994,  9.046939 )     2.61188968
  WF centre and spread   10  ( -0.883882, -1.361529,  9.116484 )     3.15309270
  WF centre and spread   11  ( -0.723038,  1.287531,  8.785267 )     3.51679464
  WF centre and spread   12  (  0.579828,  1.832032,  7.992856 )     4.48048951
  WF centre and spread   13  ( -2.062837,  3.231886,  8.480891 )     5.54155434
  WF centre and spread   14  ( -0.713936,  1.470543,  9.019067 )     3.39444624
  WF centre and spread   15  ( -0.835571,  1.226997,  9.097198 )     3.11464830
  WF centre and spread   16  (  1.459751,  0.021000,  8.772892 )     3.44336012
  WF centre and spread   17  (  3.517884, -0.711687, 10.467339 )     6.93027297
  WF centre and spread   18  (  1.300043,  1.415972,  7.994172 )     4.49450227
  WF centre and spread   19  (  1.638218, -0.010823,  9.159010 )     3.35717031
  WF centre and spread   20  (  1.483717,  0.012198,  8.975154 )     3.22417456
  Sum of centres and spreads (  2.960786,  4.704472,160.436123 )    86.01057685

done

 Final State
  WF centre and spread    1  ( -0.068827,  0.112445,  6.626890 )     2.85662232
  WF centre and spread    2  (  1.083757, -0.018421,  4.837612 )     5.81127780
  WF centre and spread    3  ( -0.558028,  0.929640,  4.837223 )     5.81095919
  WF centre and spread    4  (  0.131617, -0.003354,  6.627097 )     2.85653634
  WF centre and spread    5  ( -0.097862, -0.169783,  6.708366 )     3.47982504
  WF centre and spread    6  ( -0.769695, -1.333924,  8.859864 )     2.72714983
  WF centre and spread    7  (  0.930100, -1.691725,  7.718787 )     2.88030082
  WF centre and spread    8  ( -1.686484, -0.041677,  7.282389 )    11.94147436
  WF centre and spread    9  ( -0.834700, -1.443909,  9.013630 )     2.34238350
  WF centre and spread   10  ( -0.817786, -1.418499,  9.185255 )     3.76475705
  WF centre and spread   11  ( -0.696354,  1.275088,  8.772962 )     3.37941294
  WF centre and spread   12  (  0.577618,  1.833192,  7.994042 )     4.47463888
  WF centre and spread   13  ( -2.062890,  3.228588,  8.478171 )     5.52979042
  WF centre and spread   14  ( -0.778997,  1.502573,  9.097614 )     3.53181055
  WF centre and spread   15  ( -0.796343,  1.206150,  9.034642 )     3.11545509
  WF centre and spread   16  (  1.452403,  0.034418,  8.773257 )     3.38128692
  WF centre and spread   17  (  3.519787, -0.705751, 10.465919 )     6.92165020
  WF centre and spread   18  (  1.298671,  1.416945,  7.993888 )     4.47140291
  WF centre and spread   19  (  1.691372,  0.076283,  9.097916 )     3.53308806
  WF centre and spread   20  (  1.443003, -0.086254,  9.034189 )     3.11378672
  Sum of centres and spreads (  2.960360,  4.702025,160.439716 )    85.92360894

         Spreads (Ang^2)       Omega I      =    69.444562257
        ================       Omega D      =     9.143729734
                               Omega OD     =     7.335316951
    Final Spread (Ang^2)       Omega Total  =    85.923608942
 ------------------------------------------------------------------------------
 Time for wannierise          209.035 (sec)

 done

 *---------------------------------------------------------------------------*
 |                               PLOTTING                                    |
 *---------------------------------------------------------------------------*

 Time for plotting              0.955 (sec)
 Total Execution Time         327.998 (sec)

 *===========================================================================*
 |                             TIMING INFORMATION                            |
 *===========================================================================*
 |    Tag                                                Ncalls      Time (s)|
 |---------------------------------------------------------------------------|
 |kmesh: get                                        :         1         0.016|
 |overlap: read                                     :         1         1.868|
 |dis: main                                         :         1       116.104|
 |wann: main                                        :         1       209.035|
 |plot: main                                        :         1         0.955|
 *---------------------------------------------------------------------------*

 All done: wannier90 exiting
